 Entering Link 1 = C:\G16W\l1.exe PID=     26440.
  
 Copyright (c) 1988-2017, Gaussian, Inc.  All Rights Reserved.
  
 This is part of the Gaussian(R) 16 program.  It is based on
 the Gaussian(R) 09 system (copyright 2009, Gaussian, Inc.),
 the Gaussian(R) 03 system (copyright 2003, Gaussian, Inc.),
 the Gaussian(R) 98 system (copyright 1998, Gaussian, Inc.),
 the Gaussian(R) 94 system (copyright 1995, Gaussian, Inc.),
 the Gaussian 92(TM) system (copyright 1992, Gaussian, Inc.),
 the Gaussian 90(TM) system (copyright 1990, Gaussian, Inc.),
 the Gaussian 88(TM) system (copyright 1988, Gaussian, Inc.),
 the Gaussian 86(TM) system (copyright 1986, Carnegie Mellon
 University), and the Gaussian 82(TM) system (copyright 1983,
 Carnegie Mellon University). Gaussian is a federally registered
 trademark of Gaussian, Inc.
  
 This software contains proprietary and confidential information,
 including trade secrets, belonging to Gaussian, Inc.
  
 This software is provided under written license and may be
 used, copied, transmitted, or stored only in accord with that
 written license.
  
 The following legend is applicable only to US Government
 contracts under FAR:
  
                    RESTRICTED RIGHTS LEGEND
  
 Use, reproduction and disclosure by the US Government is
 subject to restrictions as set forth in subparagraphs (a)
 and (c) of the Commercial Computer Software - Restricted
 Rights clause in FAR 52.227-19.
  
 Gaussian, Inc.
 340 Quinnipiac St., Bldg. 40, Wallingford CT 06492
  
  
 ---------------------------------------------------------------
 Warning -- This program may not be used in any manner that
 competes with the business of Gaussian, Inc. or will provide
 assistance to any competitor of Gaussian, Inc.  The licensee
 of this program is prohibited from giving any competitor of
 Gaussian, Inc. access to this program.  By using this program,
 the user acknowledges that Gaussian, Inc. is engaged in the
 business of creating and licensing software in the field of
 computational chemistry and represents and warrants to the
 licensee that it is not a competitor of Gaussian, Inc. and that
 it will not use this program in any manner prohibited above.
 ---------------------------------------------------------------
  

 Cite this work as:
 Gaussian 16, Revision B.01,
 M. J. Frisch, G. W. Trucks, H. B. Schlegel, G. E. Scuseria, 
 M. A. Robb, J. R. Cheeseman, G. Scalmani, V. Barone, 
 G. A. Petersson, H. Nakatsuji, X. Li, M. Caricato, A. V. Marenich, 
 J. Bloino, B. G. Janesko, R. Gomperts, B. Mennucci, H. P. Hratchian, 
 J. V. Ortiz, A. F. Izmaylov, J. L. Sonnenberg, D. Williams-Young, 
 F. Ding, F. Lipparini, F. Egidi, J. Goings, B. Peng, A. Petrone, 
 T. Henderson, D. Ranasinghe, V. G. Zakrzewski, J. Gao, N. Rega, 
 G. Zheng, W. Liang, M. Hada, M. Ehara, K. Toyota, R. Fukuda, 
 J. Hasegawa, M. Ishida, T. Nakajima, Y. Honda, O. Kitao, H. Nakai, 
 T. Vreven, K. Throssell, J. A. Montgomery, Jr., J. E. Peralta, 
 F. Ogliaro, M. J. Bearpark, J. J. Heyd, E. N. Brothers, K. N. Kudin, 
 V. N. Staroverov, T. A. Keith, R. Kobayashi, J. Normand, 
 K. Raghavachari, A. P. Rendell, J. C. Burant, S. S. Iyengar, 
 J. Tomasi, M. Cossi, J. M. Millam, M. Klene, C. Adamo, R. Cammi, 
 J. W. Ochterski, R. L. Martin, K. Morokuma, O. Farkas, 
 J. B. Foresman, and D. J. Fox, Gaussian, Inc., Wallingford CT, 2016.
 
 ******************************************
 Gaussian 16:  EM64W-G16RevB.01 16-Dec-2017
                07-Sep-2025 
 ******************************************
 %chk=D:\Gaussian\CH3+O2\CH3_O2_new\TS_CH3_O2.chk
 --------------------------------------------------------
 # opt=qst3 freq b3lyp/6-31++g(3df,3pd) geom=connectivity
 --------------------------------------------------------
 1/5=1,18=20,26=3,27=203,38=1,57=2/1,3;
 2/9=110,12=2,17=6,18=5,40=1/2;
 3/5=1,6=6,7=1616,11=2,25=1,30=1,71=1,74=-5/1,2,3;
 4//1;
 5/5=2,38=5/2;
 6/7=2,8=2,9=2,10=2,28=1/1;
 7//1,2,3,16;
 1/5=1,18=20,26=3,27=203/3(2);
 2/9=110/2;
 99//99;
 2/9=110/2;
 3/5=1,6=6,7=1616,11=2,25=1,30=1,71=1,74=-5/1,2,3;
 4/5=5,16=3,69=1/1;
 5/5=2,38=5/2;
 7//1,2,3,16;
 1/5=1,18=20,26=3,27=203/3(-5);
 2/9=110/2;
 6/7=2,8=2,9=2,10=2,19=2,28=1/1;
 99/9=1/99;
 -------------------
 Title Card Required
 -------------------
 Symbolic Z-matrix:
 Charge =  0 Multiplicity = 2
 C                     3.21462   0.00241   0.00003 
 H                     3.21632   1.0724    0.00474 
 H                     3.21472  -0.52851  -0.92896 
 H                     3.21281  -0.53666   0.92432 
 O                    -2.40888   0.01018  -0.00005 
 O                    -1.2079   -0.01289   0.00001 
 
 Add virtual bond connecting atoms O6         and C1         Dist= 8.36D+00.
 Add virtual bond connecting atoms O6         and H2         Dist= 8.61D+00.
 Add virtual bond connecting atoms O6         and H3         Dist= 8.60D+00.
 Add virtual bond connecting atoms O6         and H4         Dist= 8.59D+00.
 ---------
 TS_CH3+O2
 ---------
 Symbolic Z-matrix:
 Charge =  0 Multiplicity = 2
 C                     1.57735   0.3345   -0.00014 
 H                    -1.24858  -0.16118   0.00053 
 H                     1.33263   1.37614   0.00134 
 H                     2.6018    0.02562  -0.00201 
 O                    -2.16514   0.12434  -0.0002 
 O                     0.66034  -0.52727   0.00033 
 
 Add virtual bond connecting atoms O6         and H2         Dist= 3.67D+00.
 ---------
 CH3_O2_TS
 ---------
 Symbolic Z-matrix:
 Charge =  0 Multiplicity = 2
 C                    -1.92815   0.0453    0.01208 
 H                    -0.51993  -0.35236   0.02527 
 H                    -2.32962   0.29986  -0.97476 
 H                    -2.56064   0.4069    0.82895 
 O                     0.76141  -0.62802   0.00317 
 O                     1.40356   0.72469  -0.00187 
 

 GradGradGradGradGradGradGradGradGradGradGradGradGradGradGradGradGradGrad
 Berny optimization.
 Initialization pass.
                           ----------------------------
                           !    Initial Parameters    !
                           ! (Angstroms and Degrees)  !
 --------------------------                            --------------------------
 ! Name  Definition         TS        Reactant Product Derivative Info.         !
 --------------------------------------------------------------------------------
 ! R1    R(1,2)             1.4633    1.07      2.8691 estimate D2E/DX2         !
 ! R2    R(1,3)             1.0954    1.07      1.07   estimate D2E/DX2         !
 ! R3    R(1,4)             1.0946    1.07      1.07   estimate D2E/DX2         !
 ! R4    R(1,6)             3.4003    4.4225    1.2584 estimate D2E/DX2         !
 ! R5    R(2,5)             1.3108    5.7246    0.96   estimate D2E/DX2         !
 ! R6    R(2,6)             2.2047    4.5554    1.9437 estimate D2E/DX2         !
 ! R7    R(3,6)             3.8812    4.5484    2.0187 estimate D2E/DX2         !
 ! R8    R(4,6)             4.0628    4.5466    2.0187 estimate D2E/DX2         !
 ! R9    R(5,6)             1.4974    1.2012    2.8996 estimate D2E/DX2         !
 ! A1    A(2,1,3)         115.0866  120.0      86.7274 estimate D2E/DX2         !
 ! A2    A(2,1,4)         129.7262  120.0     153.2725 estimate D2E/DX2         !
 ! A3    A(3,1,4)         112.5686  120.0     120.0    estimate D2E/DX2         !
 ! A4    A(3,1,6)         107.9989   89.9067  120.0    estimate D2E/DX2         !
 ! A5    A(4,1,6)         120.2148   89.8037  120.0    estimate D2E/DX2         !
 ! A6    L(5,2,6,3,-1)    275.7651  158.7467  173.5536 estimate D2E/DX2         !
 ! A7    L(5,2,6,3,-2)    308.3161  358.3991  180.0707 estimate D2E/DX2         !
 ! A8    A(1,6,2)          17.7265   13.5847  125.9222 estimate D2E/DX2         !
 ! A9    L(1,6,5,2,-1)     53.088   178.7015  128.0525 estimate D2E/DX2         !
 ! A10   L(1,6,5,2,-2)    177.904   179.9691    0.417  estimate D2E/DX2         !
 ! A11   A(2,6,3)          27.1798   23.4918   98.5969 estimate D2E/DX2         !
 ! A12   A(2,6,4)          26.8715   23.4966  153.2474 estimate D2E/DX2         !
 ! A13   L(2,6,5,3,-1)     86.4805  190.48    195.0635 estimate D2E/DX2         !
 ! A14   L(2,6,5,3,-2)    336.9301  215.7022  359.9825 estimate D2E/DX2         !
 ! A15   A(3,6,4)          26.3848   23.515    54.6507 estimate D2E/DX2         !
 ! A16   L(3,6,5,2,-1)     62.5413  188.6085  100.7272 estimate D2E/DX2         !
 ! A17   L(3,6,5,2,-2)    144.3946  149.2328    0.4688 estimate D2E/DX2         !
 ! A18   L(4,6,5,2,-1)     62.233   188.6133  155.3777 estimate D2E/DX2         !
 ! A19   L(4,6,5,2,-2)    204.6905  210.7128    0.3031 estimate D2E/DX2         !
 ! D1    D(2,1,4,3)       160.4522  180.0     179.8637 estimate D2E/DX2         !
 ! D2    D(3,1,4,6)      -128.9963  -89.779  -179.9999 estimate D2E/DX2         !
 ! D3    D(3,1,6,2)      -110.0286 -119.9999    0.1116 estimate D2E/DX2         !
 ! D4    D(4,1,6,2)       118.9617  119.9995 -179.8883 estimate D2E/DX2         !
 ! D5    D(3,2,6,1)        33.5094   30.7363   -0.0518 estimate D2E/DX2         !
 ! D6    D(4,2,6,1)       -26.7866  -30.7437    0.1139 estimate D2E/DX2         !
 ! D7    D(4,3,6,1)        23.286    30.7181    0.0001 estimate D2E/DX2         !
 ! D8    D(5,3,6,1)       -61.8437 -174.9818  179.8911 estimate D2E/DX2         !
 ! D9    D(5,4,6,1)        52.2116  175.0138   -0.2242 estimate D2E/DX2         !
 --------------------------------------------------------------------------------
 Trust Radius=3.00D-01 FncErr=1.00D-07 GrdErr=1.00D-06 EigMax=2.50D+02 EigMin=1.00D-04
 Number of steps in this run=     47 maximum allowed number of steps=    100.
 Search for a saddle point of order  1.
 GradGradGradGradGradGradGradGradGradGradGradGradGradGradGradGradGradGrad

                          Input orientation:                          
 ---------------------------------------------------------------------
 Center     Atomic      Atomic             Coordinates (Angstroms)
 Number     Number       Type             X           Y           Z
 ---------------------------------------------------------------------
      1          6           0       -1.928150    0.045303    0.012077
      2          1           0       -0.519930   -0.352356    0.025273
      3          1           0       -2.329621    0.299858   -0.974755
      4          1           0       -2.560643    0.406901    0.828951
      5          8           0        0.761407   -0.628015    0.003171
      6          8           0        1.403561    0.724693   -0.001867
 ---------------------------------------------------------------------
                    Distance matrix (angstroms):
                    1          2          3          4          5
     1  C    0.000000
     2  H    1.463349   0.000000
     3  H    1.095360   2.168046   0.000000
     4  H    1.094570   2.320965   1.821589   0.000000
     5  O    2.772572   1.310840   3.372201   3.576168   0.000000
     6  O    3.400304   2.204675   3.881191   4.062778   1.497400
                    6
     6  O    0.000000
 Stoichiometry    CH3O2(2)
 Framework group  C1[X(CH3O2)]
 Deg. of freedom    12
 Full point group                 C1      NOp   1
 Largest Abelian subgroup         C1      NOp   1
 Largest concise Abelian subgroup C1      NOp   1
                         Standard orientation:                         
 ---------------------------------------------------------------------
 Center     Atomic      Atomic             Coordinates (Angstroms)
 Number     Number       Type             X           Y           Z
 ---------------------------------------------------------------------
      1          6           0       -1.940165   -0.079878   -0.013194
      2          1           0       -0.552013    0.382958   -0.027695
      3          1           0       -2.329238   -0.350373    0.974363
      4          1           0       -2.555193   -0.472632   -0.829018
      5          8           0        0.715083    0.718101   -0.006562
      6          8           0        1.419596   -0.603186    0.001751
 ---------------------------------------------------------------------
 Rotational constants (GHZ):          31.1039410           5.1040095           4.5139544
 Standard basis: 6-31++G(3df,3pd) (6D, 7F)
 There are   177 symmetry adapted cartesian basis functions of A   symmetry.
 There are   168 symmetry adapted basis functions of A   symmetry.
   168 basis functions,   222 primitive gaussians,   177 cartesian basis functions
    13 alpha electrons       12 beta electrons
       nuclear repulsion energy        57.7022196975 Hartrees.
 NAtoms=    6 NActive=    6 NUniq=    6 SFac= 1.00D+00 NAtFMM=   60 NAOKFM=F Big=F
 Integral buffers will be    131072 words long.
 Raffenetti 2 integral format.
 Two-electron integral symmetry is turned on.
 One-electron integrals computed using PRISM.
 NBasis=   168 RedAO= T EigKep=  4.32D-04  NBF=   168
 NBsUse=   168 1.00D-06 EigRej= -1.00D+00 NBFU=   168
 ExpMin= 3.60D-02 ExpMax= 5.48D+03 ExpMxC= 8.25D+02 IAcc=3 IRadAn=         5 AccDes= 0.00D+00
 Harris functional with IExCor=  402 and IRadAn=       5 diagonalized for initial guess.
 HarFok:  IExCor=  402 AccDes= 0.00D+00 IRadAn=         5 IDoV= 1 UseB2=F ITyADJ=14
 ICtDFT=  3500011 ScaDFX=  1.000000  1.000000  1.000000  1.000000
 FoFCou: FMM=F IPFlag=           0 FMFlag=      100000 FMFlg1=           0
         NFxFlg=           0 DoJE=T BraDBF=F KetDBF=T FulRan=T
         wScrn=  0.000000 ICntrl=       500 IOpCl=  0 I1Cent=   200000004 NGrid=           0
         NMat0=    1 NMatS0=      1 NMatT0=    0 NMatD0=    1 NMtDS0=    0 NMtDT0=    0
 Petite list used in FoFCou.
 Initial guess <Sx>= 0.0000 <Sy>= 0.0000 <Sz>= 0.5000 <S**2>= 0.7500 S= 0.5000
 Requested convergence on RMS density matrix=1.00D-08 within 128 cycles.
 Requested convergence on MAX density matrix=1.00D-06.
 Requested convergence on             energy=1.00D-06.
 No special actions if energy rises.
 Rare condition: small coef for last iteration:  0.000D+00
 Restarting incremental Fock formation.
 SCF Done:  E(UB3LYP) =  -190.069397208     A.U. after   23 cycles
            NFock= 23  Conv=0.31D-08     -V/T= 2.0107
 <Sx>= 0.0000 <Sy>= 0.0000 <Sz>= 0.5000 <S**2>= 1.4333 S= 0.7974
 <L.S>= 0.000000000000E+00
 Annihilation of the first spin contaminant:
 S**2 before annihilation     1.4333,   after     0.7723

 **********************************************************************

            Population analysis using the SCF Density.

 **********************************************************************

 Orbital symmetries:
 Alpha Orbitals:
       Occupied  (A) (A) (A) (A) (A) (A) (A) (A) (A) (A) (A) (A)
                 (A)
       Virtual   (A) (A) (A) (A) (A) (A) (A) (A) (A) (A) (A) (A)
                 (A) (A) (A) (A) (A) (A) (A) (A) (A) (A) (A) (A)
                 (A) (A) (A) (A) (A) (A) (A) (A) (A) (A) (A) (A)
                 (A) (A) (A) (A) (A) (A) (A) (A) (A) (A) (A) (A)
                 (A) (A) (A) (A) (A) (A) (A) (A) (A) (A) (A) (A)
                 (A) (A) (A) (A) (A) (A) (A) (A) (A) (A) (A) (A)
                 (A) (A) (A) (A) (A) (A) (A) (A) (A) (A) (A) (A)
                 (A) (A) (A) (A) (A) (A) (A) (A) (A) (A) (A) (A)
                 (A) (A) (A) (A) (A) (A) (A) (A) (A) (A) (A) (A)
                 (A) (A) (A) (A) (A) (A) (A) (A) (A) (A) (A) (A)
                 (A) (A) (A) (A) (A) (A) (A) (A) (A) (A) (A) (A)
                 (A) (A) (A) (A) (A) (A) (A) (A) (A) (A) (A) (A)
                 (A) (A) (A) (A) (A) (A) (A) (A) (A) (A) (A)
 Beta  Orbitals:
       Occupied  (A) (A) (A) (A) (A) (A) (A) (A) (A) (A) (A) (A)
       Virtual   (A) (A) (A) (A) (A) (A) (A) (A) (A) (A) (A) (A)
                 (A) (A) (A) (A) (A) (A) (A) (A) (A) (A) (A) (A)
                 (A) (A) (A) (A) (A) (A) (A) (A) (A) (A) (A) (A)
                 (A) (A) (A) (A) (A) (A) (A) (A) (A) (A) (A) (A)
                 (A) (A) (A) (A) (A) (A) (A) (A) (A) (A) (A) (A)
                 (A) (A) (A) (A) (A) (A) (A) (A) (A) (A) (A) (A)
                 (A) (A) (A) (A) (A) (A) (A) (A) (A) (A) (A) (A)
                 (A) (A) (A) (A) (A) (A) (A) (A) (A) (A) (A) (A)
                 (A) (A) (A) (A) (A) (A) (A) (A) (A) (A) (A) (A)
                 (A) (A) (A) (A) (A) (A) (A) (A) (A) (A) (A) (A)
                 (A) (A) (A) (A) (A) (A) (A) (A) (A) (A) (A) (A)
                 (A) (A) (A) (A) (A) (A) (A) (A) (A) (A) (A) (A)
                 (A) (A) (A) (A) (A) (A) (A) (A) (A) (A) (A) (A)
 The electronic state is 2-A.
 Alpha  occ. eigenvalues --  -19.27599 -19.26829 -10.26962  -1.09850  -0.87596
 Alpha  occ. eigenvalues --   -0.69364  -0.51060  -0.45917  -0.45706  -0.45151
 Alpha  occ. eigenvalues --   -0.36254  -0.32945  -0.30094
 Alpha virt. eigenvalues --   -0.13921  -0.03716  -0.01311   0.02392   0.03703
 Alpha virt. eigenvalues --    0.07533   0.08356   0.09302   0.11871   0.13110
 Alpha virt. eigenvalues --    0.14792   0.16800   0.18013   0.18530   0.19518
 Alpha virt. eigenvalues --    0.21142   0.22973   0.23112   0.25746   0.29641
 Alpha virt. eigenvalues --    0.34641   0.39219   0.41782   0.46066   0.46592
 Alpha virt. eigenvalues --    0.51550   0.54512   0.55580   0.55648   0.58428
 Alpha virt. eigenvalues --    0.60001   0.60370   0.62457   0.63633   0.66992
 Alpha virt. eigenvalues --    0.69484   0.73132   0.73296   0.74745   0.75307
 Alpha virt. eigenvalues --    0.76542   0.77882   0.78503   0.81299   0.90168
 Alpha virt. eigenvalues --    0.93844   0.94916   0.98110   1.05370   1.07399
 Alpha virt. eigenvalues --    1.17630   1.28629   1.30386   1.34348   1.38518
 Alpha virt. eigenvalues --    1.40064   1.50393   1.69757   1.72952   1.84233
 Alpha virt. eigenvalues --    1.87249   1.91250   1.96169   1.98007   2.02909
 Alpha virt. eigenvalues --    2.06658   2.09964   2.11818   2.12031   2.13264
 Alpha virt. eigenvalues --    2.17965   2.21939   2.37184   2.39844   2.45614
 Alpha virt. eigenvalues --    2.55379   2.61016   2.63636   2.70985   2.82964
 Alpha virt. eigenvalues --    2.84736   2.85610   2.91621   2.97376   3.01116
 Alpha virt. eigenvalues --    3.01670   3.03126   3.06913   3.13215   3.17928
 Alpha virt. eigenvalues --    3.23827   3.27460   3.36084   3.42599   3.47471
 Alpha virt. eigenvalues --    3.58899   3.61121   3.73404   3.80430   3.83203
 Alpha virt. eigenvalues --    3.95370   3.97788   4.04398   4.14400   4.24271
 Alpha virt. eigenvalues --    4.49512   4.60374   4.60967   4.66907   4.72931
 Alpha virt. eigenvalues --    4.76165   4.79452   4.80710   4.96804   4.97417
 Alpha virt. eigenvalues --    4.98717   5.04899   5.21485   5.28010   5.35411
 Alpha virt. eigenvalues --    5.45757   5.61990   5.64951   5.76317   5.80377
 Alpha virt. eigenvalues --    6.03805   6.23883   6.73710   8.39730   8.47125
 Alpha virt. eigenvalues --    8.47422   8.49010   8.61848   8.70357   8.84356
 Alpha virt. eigenvalues --    8.91305   9.12522   9.23035   9.33244   9.52564
 Alpha virt. eigenvalues --    9.67709   9.73724   9.79782  12.43817  12.48068
 Alpha virt. eigenvalues --   12.51433  12.52811  12.57488  12.60027  12.68900
 Alpha virt. eigenvalues --   13.06778  13.36096  13.54272  21.73079  22.28100
  Beta  occ. eigenvalues --  -19.25784 -19.24563 -10.27512  -1.05112  -0.81366
  Beta  occ. eigenvalues --   -0.70808  -0.48209  -0.45802  -0.42823  -0.36007
  Beta  occ. eigenvalues --   -0.33751  -0.25699
  Beta virt. eigenvalues --   -0.19197  -0.14910  -0.01758  -0.01005   0.02431
  Beta virt. eigenvalues --    0.03920   0.06572   0.08571   0.09622   0.11742
  Beta virt. eigenvalues --    0.13435   0.14411   0.16941   0.18745   0.19209
  Beta virt. eigenvalues --    0.20105   0.21146   0.23236   0.23703   0.25996
  Beta virt. eigenvalues --    0.29842   0.34116   0.38816   0.41454   0.45802
  Beta virt. eigenvalues --    0.47097   0.51149   0.53590   0.56174   0.56241
  Beta virt. eigenvalues --    0.58240   0.59822   0.60434   0.62661   0.63722
  Beta virt. eigenvalues --    0.67195   0.68446   0.73124   0.73393   0.74565
  Beta virt. eigenvalues --    0.75788   0.76734   0.78206   0.79016   0.81752
  Beta virt. eigenvalues --    0.90206   0.93920   0.95330   0.97814   1.06225
  Beta virt. eigenvalues --    1.07652   1.21253   1.28880   1.30558   1.34609
  Beta virt. eigenvalues --    1.40752   1.42378   1.51298   1.71555   1.74152
  Beta virt. eigenvalues --    1.83472   1.88612   1.90254   1.96589   1.99912
  Beta virt. eigenvalues --    2.04397   2.08539   2.09630   2.11949   2.16000
  Beta virt. eigenvalues --    2.17652   2.20626   2.24647   2.38526   2.43560
  Beta virt. eigenvalues --    2.46347   2.56275   2.59952   2.62777   2.70250
  Beta virt. eigenvalues --    2.82094   2.83519   2.86485   2.91277   2.96279
  Beta virt. eigenvalues --    3.00005   3.01002   3.02932   3.06480   3.12383
  Beta virt. eigenvalues --    3.18061   3.23429   3.28497   3.36700   3.42179
  Beta virt. eigenvalues --    3.46650   3.58495   3.61004   3.73018   3.80044
  Beta virt. eigenvalues --    3.83165   3.95087   3.97117   4.04888   4.12724
  Beta virt. eigenvalues --    4.24437   4.49266   4.59203   4.64174   4.68387
  Beta virt. eigenvalues --    4.75004   4.78290   4.80713   4.82891   5.00149
  Beta virt. eigenvalues --    5.03060   5.04213   5.06081   5.25036   5.30202
  Beta virt. eigenvalues --    5.35824   5.48273   5.63701   5.67659   5.78508
  Beta virt. eigenvalues --    5.83900   6.05168   6.25616   6.75084   8.46038
  Beta virt. eigenvalues --    8.50887   8.56049   8.58663   8.69257   8.74329
  Beta virt. eigenvalues --    8.90500   8.94975   9.16384   9.22274   9.30591
  Beta virt. eigenvalues --    9.52065   9.69184   9.73359   9.79269  12.43947
  Beta virt. eigenvalues --   12.47328  12.50487  12.52532  12.57234  12.59768
  Beta virt. eigenvalues --   12.68105  13.07168  13.36301  13.53298  21.76483
  Beta virt. eigenvalues --   22.30713
          Condensed to atoms (all electrons):
               1          2          3          4          5          6
     1  C    5.546906   0.276992   0.384210   0.382141  -0.077240   0.017521
     2  H    0.276992   0.387930  -0.002945  -0.002422  -0.041562  -0.037919
     3  H    0.384210  -0.002945   0.341250  -0.008655   0.002448   0.003005
     4  H    0.382141  -0.002422  -0.008655   0.337218   0.002407   0.001618
     5  O   -0.077240  -0.041562   0.002448   0.002407   8.872865  -0.509490
     6  O    0.017521  -0.037919   0.003005   0.001618  -0.509490   8.733613
          Atomic-Atomic Spin Densities.
               1          2          3          4          5          6
     1  C   -0.478618   0.042671  -0.000796  -0.000076  -0.028176   0.020614
     2  H    0.042671  -0.020790  -0.001610  -0.001502  -0.037815   0.007524
     3  H   -0.000796  -0.001610   0.015940  -0.000043   0.000524   0.000077
     4  H   -0.000076  -0.001502  -0.000043   0.015079   0.000032   0.000230
     5  O   -0.028176  -0.037815   0.000524   0.000032   0.787119  -0.134625
     6  O    0.020614   0.007524   0.000077   0.000230  -0.134625   0.947211
 Mulliken charges and spin densities:
               1          2
     1  C   -0.530531  -0.444381
     2  H    0.419925  -0.011521
     3  H    0.280687   0.014092
     4  H    0.287693   0.013720
     5  O   -0.249427   0.587059
     6  O   -0.208347   0.841031
 Sum of Mulliken charges =   0.00000   1.00000
 Mulliken charges and spin densities with hydrogens summed into heavy atoms:
               1          2
     1  C    0.037849  -0.416569
     5  O    0.170498   0.575538
     6  O   -0.208347   0.841031
 Electronic spatial extent (au):  <R**2>=            268.9574
 Charge=              0.0000 electrons
 Dipole moment (field-independent basis, Debye):
    X=             -3.4629    Y=             -0.5604    Z=              0.0956  Tot=              3.5092
 Quadrupole moment (field-independent basis, Debye-Ang):
   XX=            -15.6442   YY=            -19.4039   ZZ=            -18.0394
   XY=              0.9973   XZ=             -0.0478   YZ=              0.1190
 Traceless Quadrupole moment (field-independent basis, Debye-Ang):
   XX=              2.0516   YY=             -1.7081   ZZ=             -0.3436
   XY=              0.9973   XZ=             -0.0478   YZ=              0.1190
 Octapole moment (field-independent basis, Debye-Ang**2):
  XXX=             -6.1764  YYY=             -0.0605  ZZZ=              0.4659  XYY=              3.0745
  XXY=             -2.5360  XXZ=             -0.4711  XZZ=              0.8126  YZZ=             -0.8414
  YYZ=             -0.0492  XYZ=             -0.3792
 Hexadecapole moment (field-independent basis, Debye-Ang**3):
 XXXX=           -254.5320 YYYY=            -49.3631 ZZZZ=            -23.6322 XXXY=              4.3386
 XXXZ=              2.4494 YYYX=             -1.8637 YYYZ=              0.1478 ZZZX=             -0.8019
 ZZZY=              0.0570 XXYY=            -55.5460 XXZZ=            -44.1438 YYZZ=            -12.4264
 XXYZ=              1.1915 YYXZ=              0.2256 ZZXY=              1.0241
 N-N= 5.770221969755D+01 E-N=-5.620286398126D+02  KE= 1.880634111337D+02
                          Isotropic Fermi Contact Couplings
        Atom                 a.u.       MegaHertz       Gauss      10(-4) cm-1
     1  C(13)             -0.04348     -48.87963     -17.44147     -16.30449
     2  H(1)              -0.01885     -84.24420     -30.06042     -28.10084
     3  H(1)               0.00804      35.95636      12.83012      11.99375
     4  H(1)               0.00776      34.67474      12.37281      11.56625
     5  O(17)              0.06500     -39.40517     -14.06075     -13.14415
     6  O(17)              0.07870     -47.70914     -17.02381     -15.91406
 --------------------------------------------------------
       Center         ----  Spin Dipole Couplings  ----
                      3XX-RR        3YY-RR        3ZZ-RR
 --------------------------------------------------------
     1   Atom        0.793506     -0.999369      0.205863
     2   Atom        0.084252     -0.033147     -0.051105
     3   Atom        0.041438     -0.022762     -0.018676
     4   Atom        0.024512     -0.022479     -0.002033
     5   Atom        0.155107     -1.007750      0.852643
     6   Atom       -1.081327     -1.559713      2.641040
 --------------------------------------------------------
                        XY            XZ            YZ
 --------------------------------------------------------
     1   Atom        0.050937     -0.074585      0.077291
     2   Atom        0.063062      0.004136      0.002119
     3   Atom        0.002447      0.025665     -0.000204
     4   Atom       -0.002023     -0.034881      0.002153
     5   Atom        0.903574     -0.001416      0.012991
     6   Atom        0.373843     -0.062148     -0.007427
 --------------------------------------------------------


 ---------------------------------------------------------------------------------
              Anisotropic Spin Dipole Couplings in Principal Axis System
 ---------------------------------------------------------------------------------

       Atom             a.u.   MegaHertz   Gauss  10(-4) cm-1        Axes

              Baa    -1.0060  -134.999   -48.171   -45.031 -0.0309  0.9974 -0.0655
     1 C(13)  Bbb     0.2023    27.142     9.685     9.054  0.1190  0.0688  0.9905
              Bcc     0.8038   107.857    38.486    35.977  0.9924  0.0229 -0.1208
 
              Baa    -0.0606   -32.339   -11.539   -10.787 -0.3982  0.9168 -0.0311
     2 H(1)   Bbb    -0.0512   -27.333    -9.753    -9.117 -0.0385  0.0171  0.9991
              Bcc     0.1118    59.672    21.292    19.904  0.9165  0.3990  0.0285
 
              Baa    -0.0283   -15.120    -5.395    -5.043 -0.3450  0.1850  0.9202
     3 H(1)   Bbb    -0.0226   -12.076    -4.309    -4.028  0.0362  0.9823 -0.1839
              Bcc     0.0510    27.196     9.704     9.072  0.9379  0.0302  0.3455
 
              Baa    -0.0262   -13.974    -4.986    -4.661  0.5538 -0.1708  0.8149
     4 H(1)   Bbb    -0.0225   -11.998    -4.281    -4.002  0.1300  0.9845  0.1180
              Bcc     0.0487    25.972     9.267     8.663  0.8224 -0.0406 -0.5674
 
              Baa    -1.5009   108.601    38.752    36.226 -0.4790  0.8778 -0.0051
     5 O(17)  Bbb     0.6480   -46.891   -16.732   -15.641  0.8776  0.4787 -0.0243
              Bcc     0.8528   -61.710   -22.020   -20.584  0.0189  0.0162  0.9997
 
              Baa    -1.7645   127.675    45.558    42.588 -0.4804  0.8770 -0.0053
     6 O(17)  Bbb    -0.8777    63.507    22.661    21.184  0.8769  0.4804  0.0165
              Bcc     2.6421  -191.182   -68.219   -63.771 -0.0170 -0.0033  0.9998
 

 ---------------------------------------------------------------------------------

 Calling FoFJK, ICntrl=      2127 FMM=F ISym2X=0 I1Cent= 0 IOpClX= 1 NMat=1 NMatS=1 NMatT=0.
 ***** Axes restored to original set *****
 -------------------------------------------------------------------
 Center     Atomic                   Forces (Hartrees/Bohr)
 Number     Number              X              Y              Z
 -------------------------------------------------------------------
      1        6           0.022068070   -0.019572846   -0.007451016
      2        1          -0.024017438    0.007689636    0.003876177
      3        1           0.004660234    0.002100597    0.001796516
      4        1           0.010059766    0.001831735    0.001824014
      5        8           0.033566021    0.116827642   -0.000338818
      6        8          -0.046336653   -0.108876764    0.000293128
 -------------------------------------------------------------------
 Cartesian Forces:  Max     0.116827642 RMS     0.041157325

 GradGradGradGradGradGradGradGradGradGradGradGradGradGradGradGradGradGrad
 Berny optimization.
 FormGI is forming the generalized inverse of G from B-inverse, IUseBI=4.
 Internal  Forces:  Max     0.092108346 RMS     0.018136201
 Search for a saddle point.
 Step number   1 out of a maximum of   47
 All quantities printed in internal units (Hartrees-Bohrs-Radians)
 Second derivative matrix not updated -- first step.
 ITU=  0
 LST/QST climbing along tangent vector
     Eigenvalues ---    0.00283   0.01031   0.01109   0.01780   0.06366
     Eigenvalues ---    0.06533   0.08196   0.08615   0.11134   0.23948
     Eigenvalues ---    0.26352   0.280801000.000001000.000001000.00000
     Eigenvalues --- 1000.000001000.000001000.000001000.000001000.00000
     Eigenvalues --- 1000.000001000.000001000.000001000.000001000.00000
     Eigenvalues --- 1000.000001000.000001000.000001000.000001000.00000
     Eigenvalues --- 1000.000001000.000001000.000001000.000001000.00000
     Eigenvalues --- 1000.000001000.00000
 Eigenvectors required to have negative eigenvalues:
                          A10       A17       A19       A6        D9
   1                    0.45902   0.45244   0.44640   0.29203   0.28475
                          A14       D8        R8        R4        A13
   1                    0.28328   0.25728  -0.12138  -0.11423   0.11302
 QST in optimization variable space.
 Eigenvectors 1 and   7 swapped, overlap=  1.0000
                        Tangent   TS vect  // Eig F  Eigenval
   1         R1         0.15152  -0.15152   0.02698   0.08196
   2         R2         0.00652  -0.00652   0.00151   0.01031
   3         R3         0.05280  -0.05280  -0.00220   0.01109
   4         R4        -0.35838   0.35838   0.00228   0.01780
   5         R5        -0.53124   0.53124  -0.00809   0.06366
   6         R6        -0.33981   0.33981  -0.01474   0.06533
   7         R7        -0.32763   0.32763  -0.00052   0.00283
   8         R8        -0.36500   0.36500   0.00373   0.08615
   9         R9         0.22566  -0.22566  -0.00380   0.11134
  10         A1        -0.03735   0.03735  -0.04928   0.23948
  11         A2         0.01111  -0.01111  -0.01008   0.26352
  12         A3         0.04963  -0.04963   0.00266   0.28080
  13         A4         0.00811  -0.00811   0.000001000.00000
  14         A5        -0.03539   0.03539   0.000001000.00000
  15         A6        -0.06831   0.06831   0.000001000.00000
  16         A7        -0.24156   0.24156   0.000001000.00000
  17         A8         0.07797  -0.07797   0.000001000.00000
  18         A9        -0.00356   0.00356   0.000001000.00000
  19         A10       -0.03577   0.03577   0.000001000.00000
  20         A11        0.05494  -0.05494   0.000001000.00000
  21         A12        0.09719  -0.09719   0.000001000.00000
  22         A13        0.02377  -0.02377   0.000001000.00000
  23         A14        0.02713  -0.02713   0.000001000.00000
  24         A15        0.03676  -0.03676   0.000001000.00000
  25         A16       -0.02659   0.02659   0.000001000.00000
  26         A17       -0.02340   0.02340   0.000001000.00000
  27         A18        0.01566  -0.01566   0.000001000.00000
  28         A19       -0.10459   0.10459   0.000001000.00000
  29         D1         0.07881  -0.07881   0.000001000.00000
  30         D2        -0.03072   0.03072   0.000001000.00000
  31         D3         0.11830  -0.11830   0.000001000.00000
  32         D4         0.06900  -0.06900   0.000001000.00000
  33         D5        -0.01237   0.01237   0.000001000.00000
  34         D6         0.06882  -0.06882   0.000001000.00000
  35         D7        -0.01002   0.01002   0.000001000.00000
  36         D8        -0.11750   0.11750   0.000001000.00000
  37         D9        -0.09301   0.09301   0.000001000.00000
 RFO step:  Lambda0=9.004074940D-02 Lambda=-1.42451428D-02.
 Linear search not attempted -- option 19 set.
 Maximum step size (   0.300) exceeded in Quadratic search.
    -- Step size scaled by   0.092
 Iteration  1 RMS(Cart)=  0.02979316 RMS(Int)=  0.00066950
 Iteration  2 RMS(Cart)=  0.00027953 RMS(Int)=  0.00049896
 Iteration  3 RMS(Cart)=  0.00000007 RMS(Int)=  0.00049896
 Variable       Old X    -DE/DX   Delta X   Delta X   Delta X     New X
                                 (Linear)    (Quad)   (Total)
    R1        2.76533  -0.01867   0.00000   0.03510   0.03526   2.80059
    R2        2.06993  -0.00182   0.00000   0.00169   0.00163   2.07156
    R3        2.06844   0.00016   0.00000   0.01584   0.01577   2.08421
    R4        6.42564  -0.00722   0.00000  -0.11421  -0.11440   6.31124
    R5        2.47713   0.00248   0.00000  -0.16721  -0.16712   2.31000
    R6        4.16623  -0.01909   0.00000  -0.10377  -0.10271   4.06352
    R7        7.33439  -0.00091   0.00000  -0.10576  -0.10567   7.22872
    R8        7.67754  -0.00662   0.00000  -0.11991  -0.12001   7.55752
    R9        2.82968  -0.09211   0.00000   0.05313   0.05197   2.88164
    A1        2.00864   0.00158   0.00000  -0.01162  -0.01212   1.99652
    A2        2.26415  -0.00321   0.00000   0.00148   0.00189   2.26604
    A3        1.96469  -0.00169   0.00000   0.01556   0.01542   1.98011
    A4        1.88494   0.00409   0.00000   0.00193   0.00207   1.88701
    A5        2.09814   0.00019   0.00000  -0.01323  -0.01309   2.08505
    A6        4.81301   0.01069   0.00000  -0.02235  -0.02342   4.78959
    A7        5.38113   0.03637   0.00000  -0.06388  -0.06540   5.31573
    A8        0.30939  -0.00873   0.00000   0.02146   0.02202   0.33141
    A9        0.92656  -0.01030   0.00000  -0.00656  -0.00669   0.91988
   A10        3.10501  -0.00318   0.00000  -0.01301  -0.01323   3.09178
   A11        0.47438  -0.00770   0.00000   0.01520   0.01545   0.48983
   A12        0.46900  -0.00794   0.00000   0.02818   0.02890   0.49790
   A13        1.50937  -0.01836   0.00000   0.00048   0.00043   1.50980
   A14        5.88054  -0.00870   0.00000   0.00625   0.00717   5.88771
   A15        0.46050  -0.00015   0.00000   0.01170   0.01184   0.47234
   A16        1.09155  -0.00927   0.00000  -0.01282  -0.01325   1.07830
   A17        2.52016  -0.01167   0.00000  -0.01151  -0.01134   2.50882
   A18        1.08617  -0.00950   0.00000   0.00016   0.00019   1.08637
   A19        3.57252   0.00576   0.00000  -0.03163  -0.03138   3.54114
    D1        2.80042  -0.01164   0.00000   0.01787   0.01763   2.81805
    D2       -2.25141  -0.00463   0.00000  -0.00653  -0.00664  -2.25805
    D3       -1.92036  -0.00022   0.00000   0.03490   0.03495  -1.88541
    D4        2.07627  -0.00220   0.00000   0.02210   0.02214   2.09842
    D5        0.58485   0.00849   0.00000  -0.00150  -0.00189   0.58296
    D6       -0.46751  -0.00894   0.00000   0.01861   0.01815  -0.44936
    D7        0.40642  -0.00026   0.00000  -0.00161  -0.00169   0.40472
    D8       -1.07938   0.00127   0.00000  -0.03412  -0.03379  -1.11316
    D9        0.91126  -0.00304   0.00000  -0.03237  -0.03213   0.87914
         Item               Value     Threshold  Converged?
 Maximum Force            0.092108     0.000450     NO 
 RMS     Force            0.018136     0.000300     NO 
 Maximum Displacement     0.105130     0.001800     NO 
 RMS     Displacement     0.029790     0.001200     NO 
 Predicted change in Energy= 9.215099D-03
 GradGradGradGradGradGradGradGradGradGradGradGradGradGradGradGradGradGrad

                          Input orientation:                          
 ---------------------------------------------------------------------
 Center     Atomic      Atomic             Coordinates (Angstroms)
 Number     Number       Type             X           Y           Z
 ---------------------------------------------------------------------
      1          6           0       -1.907886    0.050972    0.014076
      2          1           0       -0.485188   -0.364018    0.021780
      3          1           0       -2.305795    0.285118   -0.980182
      4          1           0       -2.540290    0.421250    0.838322
      5          8           0        0.705775   -0.637035   -0.014743
      6          8           0        1.360008    0.740097    0.013596
 ---------------------------------------------------------------------
                    Distance matrix (angstroms):
                    1          2          3          4          5
     1  C    0.000000
     2  H    1.482007   0.000000
     3  H    1.096223   2.177134   0.000000
     4  H    1.102915   2.346663   1.838607   0.000000
     5  O    2.702852   1.222402   3.294236   3.519179   0.000000
     6  O    3.339764   2.150322   3.825273   3.999270   1.524899
                    6
     6  O    0.000000
 Stoichiometry    CH3O2(2)
 Framework group  C1[X(CH3O2)]
 Deg. of freedom    12
 Full point group                 C1      NOp   1
 Largest Abelian subgroup         C1      NOp   1
 Largest concise Abelian subgroup C1      NOp   1
                         Standard orientation:                         
 ---------------------------------------------------------------------
 Center     Atomic      Atomic             Coordinates (Angstroms)
 Number     Number       Type             X           Y           Z
 ---------------------------------------------------------------------
      1          6           0       -1.895620   -0.091476   -0.013811
      2          1           0       -0.496459    0.396462   -0.038509
      3          1           0       -2.281475   -0.309319    0.988868
      4          1           0       -2.507319   -0.524223   -0.823116
      5          8           0        0.678645    0.732276   -0.013509
      6          8           0        1.403726   -0.609034    0.007962
 ---------------------------------------------------------------------
 Rotational constants (GHZ):          30.1371392           5.3214180           4.6625548
 Standard basis: 6-31++G(3df,3pd) (6D, 7F)
 There are   177 symmetry adapted cartesian basis functions of A   symmetry.
 There are   168 symmetry adapted basis functions of A   symmetry.
   168 basis functions,   222 primitive gaussians,   177 cartesian basis functions
    13 alpha electrons       12 beta electrons
       nuclear repulsion energy        57.9718851459 Hartrees.
 NAtoms=    6 NActive=    6 NUniq=    6 SFac= 1.00D+00 NAtFMM=   60 NAOKFM=F Big=F
 Integral buffers will be    131072 words long.
 Raffenetti 2 integral format.
 Two-electron integral symmetry is turned on.
 One-electron integrals computed using PRISM.
 NBasis=   168 RedAO= T EigKep=  4.65D-04  NBF=   168
 NBsUse=   168 1.00D-06 EigRej= -1.00D+00 NBFU=   168
 Initial guess from the checkpoint file:  "D:\Gaussian\CH3+O2\CH3_O2_new\TS_CH3_O2.chk"
 B after Tr=     0.000000    0.000000    0.000000
         Rot=    0.999957    0.008777   -0.000075   -0.002847 Ang=   1.06 deg.
 Initial guess <Sx>= 0.0000 <Sy>= 0.0000 <Sz>= 0.5000 <S**2>= 1.4342 S= 0.7978
 ExpMin= 3.60D-02 ExpMax= 5.48D+03 ExpMxC= 8.25D+02 IAcc=3 IRadAn=         5 AccDes= 0.00D+00
 Harris functional with IExCor=  402 and IRadAn=       5 diagonalized for initial guess.
 HarFok:  IExCor=  402 AccDes= 0.00D+00 IRadAn=         5 IDoV= 1 UseB2=F ITyADJ=14
 ICtDFT=  3500011 ScaDFX=  1.000000  1.000000  1.000000  1.000000
 FoFCou: FMM=F IPFlag=           0 FMFlag=      100000 FMFlg1=           0
         NFxFlg=           0 DoJE=T BraDBF=F KetDBF=T FulRan=T
         wScrn=  0.000000 ICntrl=       500 IOpCl=  0 I1Cent=   200000004 NGrid=           0
         NMat0=    1 NMatS0=      1 NMatT0=    0 NMatD0=    1 NMtDS0=    0 NMtDT0=    0
 Petite list used in FoFCou.
 Requested convergence on RMS density matrix=1.00D-08 within 128 cycles.
 Requested convergence on MAX density matrix=1.00D-06.
 Requested convergence on             energy=1.00D-06.
 No special actions if energy rises.
 SCF Done:  E(UB3LYP) =  -190.065434154     A.U. after   19 cycles
            NFock= 19  Conv=0.54D-08     -V/T= 2.0104
 <Sx>= 0.0000 <Sy>= 0.0000 <Sz>= 0.5000 <S**2>= 1.3670 S= 0.7716
 <L.S>= 0.000000000000E+00
 Annihilation of the first spin contaminant:
 S**2 before annihilation     1.3670,   after     0.7672
 Calling FoFJK, ICntrl=      2127 FMM=F ISym2X=0 I1Cent= 0 IOpClX= 1 NMat=1 NMatS=1 NMatT=0.
 ***** Axes restored to original set *****
 -------------------------------------------------------------------
 Center     Atomic                   Forces (Hartrees/Bohr)
 Number     Number              X              Y              Z
 -------------------------------------------------------------------
      1        6           0.004784667   -0.011125219   -0.002149351
      2        1           0.006334112    0.000072893    0.002840697
      3        1           0.002257687    0.002424107    0.002369504
      4        1           0.009525735    0.000411518   -0.003489743
      5        8           0.021539220    0.106606098    0.002522718
      6        8          -0.044441421   -0.098389398   -0.002093825
 -------------------------------------------------------------------
 Cartesian Forces:  Max     0.106606098 RMS     0.036373231

 GradGradGradGradGradGradGradGradGradGradGradGradGradGradGradGradGradGrad
 Berny optimization.
 FormGI is forming the generalized inverse of G from B-inverse, IUseBI=4.
 Internal  Forces:  Max     0.080834277 RMS     0.015860302
 Search for a saddle point.
 Step number   2 out of a maximum of   47
 All quantities printed in internal units (Hartrees-Bohrs-Radians)
 Update second derivatives using D2CorX and points    1    2
 ITU=  0  0
 LST/QST climbing along tangent vector
     Eigenvalues ---   -0.04279   0.00255   0.01006   0.01108   0.01815
     Eigenvalues ---    0.04571   0.06385   0.06893   0.11043   0.23058
     Eigenvalues ---    0.26273   0.282011000.000001000.000001000.00000
     Eigenvalues --- 1000.000001000.000001000.000001000.000001000.00000
     Eigenvalues --- 1000.000001000.000001000.000001000.000001000.00000
     Eigenvalues --- 1000.000001000.000001000.000001000.000001000.00000
     Eigenvalues --- 1000.000001000.000001000.000001000.000001000.00000
     Eigenvalues --- 1000.000001000.00000
 Eigenvectors required to have negative eigenvalues:
                          R5        R8        R4        R7        R6
   1                    0.51090   0.37228   0.36307   0.33134   0.32473
                          A7        R9        R1        D8        D3
   1                    0.24990  -0.22586  -0.15767   0.12415  -0.12312
 QST in optimization variable space.
                        Tangent   TS vect  // Eig F  Eigenval
   1         R1         0.15767  -0.15767   0.01658  -0.04279
   2         R2         0.00691  -0.00691  -0.00074   0.00255
   3         R3         0.05265  -0.05265   0.00083   0.01006
   4         R4        -0.36307   0.36307  -0.00184   0.01108
   5         R5        -0.51090   0.51090   0.00206   0.01815
   6         R6        -0.32473   0.32473   0.00428   0.04571
   7         R7        -0.33134   0.33134  -0.00120   0.06385
   8         R8        -0.37228   0.37228  -0.01002   0.06893
   9         R9         0.22586  -0.22586  -0.00213   0.11043
  10         A1        -0.04296   0.04296  -0.04582   0.23058
  11         A2         0.01427  -0.01427  -0.00504   0.26273
  12         A3         0.05208  -0.05208  -0.00034   0.28201
  13         A4         0.00823  -0.00823   0.000001000.00000
  14         A5        -0.03694   0.03694   0.000001000.00000
  15         A6        -0.08598   0.08598   0.000001000.00000
  16         A7        -0.24990   0.24990   0.000001000.00000
  17         A8         0.08623  -0.08623   0.000001000.00000
  18         A9         0.00524  -0.00524   0.000001000.00000
  19         A10       -0.03902   0.03902   0.000001000.00000
  20         A11        0.05985  -0.05985   0.000001000.00000
  21         A12        0.10691  -0.10691   0.000001000.00000
  22         A13        0.03452  -0.03452   0.000001000.00000
  23         A14        0.03160  -0.03160   0.000001000.00000
  24         A15        0.03870  -0.03870   0.000001000.00000
  25         A16       -0.02114   0.02114   0.000001000.00000
  26         A17       -0.02208   0.02208   0.000001000.00000
  27         A18        0.02592  -0.02592   0.000001000.00000
  28         A19       -0.10808   0.10808   0.000001000.00000
  29         D1         0.08431  -0.08431   0.000001000.00000
  30         D2        -0.03141   0.03141   0.000001000.00000
  31         D3         0.12312  -0.12312   0.000001000.00000
  32         D4         0.07193  -0.07193   0.000001000.00000
  33         D5        -0.01695   0.01695   0.000001000.00000
  34         D6         0.06906  -0.06906   0.000001000.00000
  35         D7        -0.01115   0.01115   0.000001000.00000
  36         D8        -0.12415   0.12415   0.000001000.00000
  37         D9        -0.09279   0.09279   0.000001000.00000
 RFO step:  Lambda0=5.674138558D-03 Lambda=-1.08037278D-02.
 Linear search not attempted -- option 19 set.
 Maximum step size (   0.300) exceeded in Quadratic search.
    -- Step size scaled by   0.703
 Iteration  1 RMS(Cart)=  0.03177477 RMS(Int)=  0.00099166
 Iteration  2 RMS(Cart)=  0.00043916 RMS(Int)=  0.00041582
 Iteration  3 RMS(Cart)=  0.00000043 RMS(Int)=  0.00041582
 Variable       Old X    -DE/DX   Delta X   Delta X   Delta X     New X
                                 (Linear)    (Quad)   (Total)
    R1        2.80059  -0.00493   0.00000  -0.01761  -0.01742   2.78317
    R2        2.07156  -0.00197   0.00000  -0.00098  -0.00101   2.07055
    R3        2.08421  -0.00394   0.00000   0.00522   0.00538   2.08959
    R4        6.31124  -0.00433   0.00000  -0.11663  -0.11682   6.19442
    R5        2.31000  -0.00756   0.00000  -0.14672  -0.14584   2.16416
    R6        4.06352  -0.02472   0.00000  -0.08869  -0.08951   3.97401
    R7        7.22872   0.00068   0.00000  -0.11224  -0.11215   7.11656
    R8        7.55752  -0.00531   0.00000  -0.14382  -0.14393   7.41359
    R9        2.88164  -0.08083   0.00000  -0.06404  -0.06333   2.81831
    A1        1.99652   0.00147   0.00000  -0.00984  -0.01006   1.98646
    A2        2.26604  -0.00220   0.00000  -0.00650  -0.00642   2.25962
    A3        1.98011  -0.00188   0.00000   0.01246   0.01245   1.99256
    A4        1.88701   0.00346   0.00000   0.00030   0.00044   1.88744
    A5        2.08505   0.00106   0.00000  -0.02256  -0.02247   2.06258
    A6        4.78959   0.01069   0.00000  -0.03463  -0.03436   4.75523
    A7        5.31573   0.03254   0.00000   0.01562   0.01621   5.33195
    A8        0.33141  -0.00601   0.00000   0.00835   0.00844   0.33985
    A9        0.91988  -0.00856   0.00000  -0.02596  -0.02624   0.89363
   A10        3.09178  -0.00285   0.00000  -0.03108  -0.03151   3.06027
   A11        0.48983  -0.00552   0.00000   0.00608   0.00599   0.49582
   A12        0.49790  -0.00601   0.00000   0.01795   0.01821   0.51611
   A13        1.50980  -0.01453   0.00000  -0.02769  -0.02825   1.48155
   A14        5.88771  -0.00544   0.00000  -0.00900  -0.00794   5.87977
   A15        0.47234  -0.00077   0.00000   0.01122   0.01141   0.48375
   A16        1.07830  -0.00807   0.00000  -0.02824  -0.02869   1.04961
   A17        2.50882  -0.00829   0.00000  -0.03832  -0.03889   2.46993
   A18        1.08637  -0.00855   0.00000  -0.01637  -0.01647   1.06990
   A19        3.54114   0.00207   0.00000  -0.03757  -0.03811   3.50303
    D1        2.81805  -0.00985   0.00000  -0.01625  -0.01655   2.80151
    D2       -2.25805  -0.00438   0.00000   0.00912   0.00887  -2.24918
    D3       -1.88541   0.00020   0.00000   0.02280   0.02322  -1.86219
    D4        2.09842  -0.00164   0.00000   0.02524   0.02531   2.12373
    D5        0.58296   0.00544   0.00000   0.00724   0.00738   0.59034
    D6       -0.44936  -0.00493   0.00000   0.00648   0.00660  -0.44276
    D7        0.40472  -0.00083   0.00000   0.00621   0.00605   0.41078
    D8       -1.11316   0.00072   0.00000  -0.02673  -0.02597  -1.13913
    D9        0.87914  -0.00249   0.00000  -0.05122  -0.05077   0.82837
         Item               Value     Threshold  Converged?
 Maximum Force            0.080834     0.000450     NO 
 RMS     Force            0.015860     0.000300     NO 
 Maximum Displacement     0.110415     0.001800     NO 
 RMS     Displacement     0.031723     0.001200     NO 
 Predicted change in Energy=-8.369602D-03
 GradGradGradGradGradGradGradGradGradGradGradGradGradGradGradGradGradGrad

                          Input orientation:                          
 ---------------------------------------------------------------------
 Center     Atomic      Atomic             Coordinates (Angstroms)
 Number     Number       Type             X           Y           Z
 ---------------------------------------------------------------------
      1          6           0       -1.885483    0.044115    0.015867
      2          1           0       -0.472796   -0.372284    0.022031
      3          1           0       -2.276693    0.266964   -0.983046
      4          1           0       -2.506547    0.435298    0.842890
      5          8           0        0.647345   -0.603310   -0.036680
      6          8           0        1.320799    0.725600    0.031788
 ---------------------------------------------------------------------
                    Distance matrix (angstroms):
                    1          2          3          4          5
     1  C    0.000000
     2  H    1.472790   0.000000
     3  H    1.095689   2.161681   0.000000
     4  H    1.105763   2.337122   1.848029   0.000000
     5  O    2.614793   1.145224   3.194212   3.435024   0.000000
     6  O    3.277944   2.102957   3.765924   3.923103   1.491385
                    6
     6  O    0.000000
 Stoichiometry    CH3O2(2)
 Framework group  C1[X(CH3O2)]
 Deg. of freedom    12
 Full point group                 C1      NOp   1
 Largest Abelian subgroup         C1      NOp   1
 Largest concise Abelian subgroup C1      NOp   1
                         Standard orientation:                         
 ---------------------------------------------------------------------
 Center     Atomic      Atomic             Coordinates (Angstroms)
 Number     Number       Type             X           Y           Z
 ---------------------------------------------------------------------
      1          6           0       -1.850304   -0.093375   -0.014839
      2          1           0       -0.464993    0.404717   -0.058758
      3          1           0       -2.229700   -0.256917    0.999974
      4          1           0       -2.445084   -0.587117   -0.805514
      5          8           0        0.639223    0.706216   -0.022105
      6          8           0        1.390978   -0.581270    0.016272
 ---------------------------------------------------------------------
 Rotational constants (GHZ):          32.2011685           5.5541427           4.8907480
 Standard basis: 6-31++G(3df,3pd) (6D, 7F)
 There are   177 symmetry adapted cartesian basis functions of A   symmetry.
 There are   168 symmetry adapted basis functions of A   symmetry.
   168 basis functions,   222 primitive gaussians,   177 cartesian basis functions
    13 alpha electrons       12 beta electrons
       nuclear repulsion energy        59.3249362168 Hartrees.
 NAtoms=    6 NActive=    6 NUniq=    6 SFac= 1.00D+00 NAtFMM=   60 NAOKFM=F Big=F
 Integral buffers will be    131072 words long.
 Raffenetti 2 integral format.
 Two-electron integral symmetry is turned on.
 One-electron integrals computed using PRISM.
 NBasis=   168 RedAO= T EigKep=  4.13D-04  NBF=   168
 NBsUse=   168 1.00D-06 EigRej= -1.00D+00 NBFU=   168
 Initial guess from the checkpoint file:  "D:\Gaussian\CH3+O2\CH3_O2_new\TS_CH3_O2.chk"
 B after Tr=     0.000000    0.000000    0.000000
         Rot=    0.999922    0.011863    0.000004   -0.003853 Ang=   1.43 deg.
 Initial guess <Sx>= 0.0000 <Sy>= 0.0000 <Sz>= 0.5000 <S**2>= 1.3711 S= 0.7732
 ExpMin= 3.60D-02 ExpMax= 5.48D+03 ExpMxC= 8.25D+02 IAcc=3 IRadAn=         5 AccDes= 0.00D+00
 Harris functional with IExCor=  402 and IRadAn=       5 diagonalized for initial guess.
 HarFok:  IExCor=  402 AccDes= 0.00D+00 IRadAn=         5 IDoV= 1 UseB2=F ITyADJ=14
 ICtDFT=  3500011 ScaDFX=  1.000000  1.000000  1.000000  1.000000
 FoFCou: FMM=F IPFlag=           0 FMFlag=      100000 FMFlg1=           0
         NFxFlg=           0 DoJE=T BraDBF=F KetDBF=T FulRan=T
         wScrn=  0.000000 ICntrl=       500 IOpCl=  0 I1Cent=   200000004 NGrid=           0
         NMat0=    1 NMatS0=      1 NMatT0=    0 NMatD0=    1 NMtDS0=    0 NMtDT0=    0
 Petite list used in FoFCou.
 Requested convergence on RMS density matrix=1.00D-08 within 128 cycles.
 Requested convergence on MAX density matrix=1.00D-06.
 Requested convergence on             energy=1.00D-06.
 No special actions if energy rises.
 SCF Done:  E(UB3LYP) =  -190.075038686     A.U. after   17 cycles
            NFock= 17  Conv=0.95D-08     -V/T= 2.0098
 <Sx>= 0.0000 <Sy>= 0.0000 <Sz>= 0.5000 <S**2>= 1.3761 S= 0.7752
 <L.S>= 0.000000000000E+00
 Annihilation of the first spin contaminant:
 S**2 before annihilation     1.3761,   after     0.7660
 Calling FoFJK, ICntrl=      2127 FMM=F ISym2X=0 I1Cent= 0 IOpClX= 1 NMat=1 NMatS=1 NMatT=0.
 ***** Axes restored to original set *****
 -------------------------------------------------------------------
 Center     Atomic                   Forces (Hartrees/Bohr)
 Number     Number              X              Y              Z
 -------------------------------------------------------------------
      1        6          -0.006616384   -0.006684791    0.000725333
      2        1           0.006523477    0.002690809    0.002408548
      3        1           0.000999801    0.002616615    0.002243097
      4        1           0.008912197   -0.000256340   -0.005701897
      5        8           0.034983468    0.089631670    0.004822539
      6        8          -0.044802559   -0.087997963   -0.004497620
 -------------------------------------------------------------------
 Cartesian Forces:  Max     0.089631670 RMS     0.032763076

 GradGradGradGradGradGradGradGradGradGradGradGradGradGradGradGradGradGrad
 Berny optimization.
 FormGI is forming the generalized inverse of G from B-inverse, IUseBI=4.
 Internal  Forces:  Max     0.072322201 RMS     0.013980796
 Search for a saddle point.
 Step number   3 out of a maximum of   47
 All quantities printed in internal units (Hartrees-Bohrs-Radians)
 Update second derivatives using D2CorX and points    1    2    3
 ITU=  0  0  0
 LST/QST climbing along tangent vector
     Eigenvalues ---   -0.00344   0.00578   0.00685   0.01051   0.01636
     Eigenvalues ---    0.03263   0.06355   0.07825   0.11092   0.18412
     Eigenvalues ---    0.26142   0.283571000.000001000.000001000.00000
     Eigenvalues --- 1000.000001000.000001000.000001000.000001000.00000
     Eigenvalues --- 1000.000001000.000001000.000001000.000001000.00000
     Eigenvalues --- 1000.000001000.000001000.000001000.000001000.00000
     Eigenvalues --- 1000.000001000.000001000.000001000.000001000.00000
     Eigenvalues --- 1000.000001000.00000
 Eigenvectors required to have negative eigenvalues:
                          A6        A10       A17       A19       R1
   1                    0.36492   0.35000   0.34789   0.33350   0.24952
                          D9        A7        R5        R8        A14
   1                    0.24041  -0.23496  -0.22391   0.21867   0.21410
 QST in optimization variable space.
 Eigenvectors 1 and   3 swapped, overlap=  1.0000
                        Tangent   TS vect  // Eig F  Eigenval
   1         R1         0.15916  -0.15916   0.02015   0.00685
   2         R2         0.00704  -0.00704   0.00489   0.00578
   3         R3         0.05239  -0.05239  -0.00926  -0.00344
   4         R4        -0.36478   0.36478  -0.00204   0.01051
   5         R5        -0.49453   0.49453   0.00292   0.01636
   6         R6        -0.31685   0.31685  -0.00788   0.03263
   7         R7        -0.33290   0.33290   0.00072   0.06355
   8         R8        -0.37536   0.37536  -0.00433   0.07825
   9         R9         0.23447  -0.23447  -0.00071   0.11092
  10         A1        -0.04724   0.04724  -0.03867   0.18412
  11         A2         0.01699  -0.01699  -0.00149   0.26142
  12         A3         0.05619  -0.05619  -0.00222   0.28357
  13         A4         0.00800  -0.00800   0.000001000.00000
  14         A5        -0.03733   0.03733   0.000001000.00000
  15         A6        -0.09442   0.09442   0.000001000.00000
  16         A7        -0.25257   0.25257   0.000001000.00000
  17         A8         0.09074  -0.09074   0.000001000.00000
  18         A9         0.01623  -0.01623   0.000001000.00000
  19         A10       -0.04325   0.04325   0.000001000.00000
  20         A11        0.06174  -0.06174   0.000001000.00000
  21         A12        0.11241  -0.11241   0.000001000.00000
  22         A13        0.04432  -0.04432   0.000001000.00000
  23         A14        0.03341  -0.03341   0.000001000.00000
  24         A15        0.04069  -0.04069   0.000001000.00000
  25         A16       -0.01277   0.01277   0.000001000.00000
  26         A17       -0.02439   0.02439   0.000001000.00000
  27         A18        0.03790  -0.03790   0.000001000.00000
  28         A19       -0.11298   0.11298   0.000001000.00000
  29         D1         0.08838  -0.08838   0.000001000.00000
  30         D2        -0.03349   0.03349   0.000001000.00000
  31         D3         0.12816  -0.12816   0.000001000.00000
  32         D4         0.07236  -0.07236   0.000001000.00000
  33         D5        -0.01887   0.01887   0.000001000.00000
  34         D6         0.06973  -0.06973   0.000001000.00000
  35         D7        -0.01365   0.01365   0.000001000.00000
  36         D8        -0.13037   0.13037   0.000001000.00000
  37         D9        -0.08840   0.08840   0.000001000.00000
 RFO step:  Lambda0=2.386363881D-02 Lambda=-1.68042378D-02.
 Linear search not attempted -- option 19 set.
 Maximum step size (   0.300) exceeded in Quadratic search.
    -- Step size scaled by   0.216
 Iteration  1 RMS(Cart)=  0.02910760 RMS(Int)=  0.00071082
 Iteration  2 RMS(Cart)=  0.00038092 RMS(Int)=  0.00029578
 Iteration  3 RMS(Cart)=  0.00000016 RMS(Int)=  0.00029578
 Variable       Old X    -DE/DX   Delta X   Delta X   Delta X     New X
                                 (Linear)    (Quad)   (Total)
    R1        2.78317   0.00181   0.00000  -0.01530  -0.01519   2.76798
    R2        2.07055  -0.00219   0.00000  -0.00002  -0.00024   2.07031
    R3        2.08959  -0.00639   0.00000   0.00809   0.00815   2.09774
    R4        6.19442  -0.00161   0.00000  -0.12961  -0.12974   6.06468
    R5        2.16416   0.00295   0.00000  -0.08605  -0.08585   2.07831
    R6        3.97401  -0.02507   0.00000  -0.07853  -0.07855   3.89546
    R7        7.11656   0.00163   0.00000  -0.13408  -0.13386   6.98271
    R8        7.41359  -0.00370   0.00000  -0.15796  -0.15812   7.25547
    R9        2.81831  -0.07232   0.00000  -0.01432  -0.01429   2.80402
    A1        1.98646   0.00115   0.00000  -0.01348  -0.01378   1.97268
    A2        2.25962  -0.00197   0.00000  -0.00341  -0.00294   2.25668
    A3        1.99256  -0.00175   0.00000   0.01383   0.01352   2.00608
    A4        1.88744   0.00257   0.00000  -0.00555  -0.00534   1.88210
    A5        2.06258   0.00142   0.00000  -0.02462  -0.02453   2.03805
    A6        4.75523   0.01044   0.00000  -0.06344  -0.06381   4.69142
    A7        5.33195   0.02809   0.00000  -0.01227  -0.01232   5.31962
    A8        0.33985  -0.00461   0.00000   0.01561   0.01577   0.35561
    A9        0.89363  -0.00371   0.00000   0.00365   0.00373   0.89736
   A10        3.06027  -0.00238   0.00000  -0.04948  -0.04971   3.01055
   A11        0.49582  -0.00428   0.00000   0.01334   0.01331   0.50913
   A12        0.51611  -0.00505   0.00000   0.02640   0.02679   0.54290
   A13        1.48155  -0.00854   0.00000   0.00488   0.00432   1.48588
   A14        5.87977  -0.00519   0.00000  -0.02160  -0.02100   5.85877
   A15        0.48375  -0.00118   0.00000   0.01338   0.01358   0.49733
   A16        1.04961  -0.00338   0.00000   0.00138   0.00126   1.05088
   A17        2.46993  -0.00626   0.00000  -0.05115  -0.05154   2.41838
   A18        1.06990  -0.00415   0.00000   0.01444   0.01475   1.08464
   A19        3.50303   0.00066   0.00000  -0.06203  -0.06208   3.44095
    D1        2.80151  -0.00931   0.00000  -0.01332  -0.01380   2.78771
    D2       -2.24918  -0.00350   0.00000   0.01872   0.01855  -2.23062
    D3       -1.86219  -0.00001   0.00000   0.02173   0.02201  -1.84018
    D4        2.12373  -0.00135   0.00000   0.02968   0.02968   2.15340
    D5        0.59034   0.00387   0.00000   0.00168   0.00183   0.59217
    D6       -0.44276  -0.00304   0.00000   0.01255   0.01237  -0.43039
    D7        0.41078  -0.00099   0.00000   0.00869   0.00861   0.41939
    D8       -1.13913  -0.00056   0.00000  -0.04515  -0.04476  -1.18390
    D9        0.82837  -0.00110   0.00000  -0.05737  -0.05654   0.77182
         Item               Value     Threshold  Converged?
 Maximum Force            0.072322     0.000450     NO 
 RMS     Force            0.013981     0.000300     NO 
 Maximum Displacement     0.098328     0.001800     NO 
 RMS     Displacement     0.029089     0.001200     NO 
 Predicted change in Energy=-1.671975D-03
 GradGradGradGradGradGradGradGradGradGradGradGradGradGradGradGradGradGrad

                          Input orientation:                          
 ---------------------------------------------------------------------
 Center     Atomic      Atomic             Coordinates (Angstroms)
 Number     Number       Type             X           Y           Z
 ---------------------------------------------------------------------
      1          6           0       -1.865731    0.040939    0.019976
      2          1           0       -0.464680   -0.386284    0.026380
      3          1           0       -2.245016    0.251247   -0.986088
      4          1           0       -2.477642    0.457133    0.847390
      5          8           0        0.610927   -0.595631   -0.067367
      6          8           0        1.268766    0.728980    0.052560
 ---------------------------------------------------------------------
                    Distance matrix (angstroms):
                    1          2          3          4          5
     1  C    0.000000
     2  H    1.464754   0.000000
     3  H    1.095560   2.145025   0.000000
     4  H    1.110075   2.331829   1.859609   0.000000
     5  O    2.558649   1.099794   3.117317   3.388857   0.000000
     6  O    3.209288   2.061391   3.695089   3.839430   1.483822
                    6
     6  O    0.000000
 Stoichiometry    CH3O2(2)
 Framework group  C1[X(CH3O2)]
 Deg. of freedom    12
 Full point group                 C1      NOp   1
 Largest Abelian subgroup         C1      NOp   1
 Largest concise Abelian subgroup C1      NOp   1
                         Standard orientation:                         
 ---------------------------------------------------------------------
 Center     Atomic      Atomic             Coordinates (Angstroms)
 Number     Number       Type             X           Y           Z
 ---------------------------------------------------------------------
      1          6           0       -1.809775   -0.094013   -0.016765
      2          1           0       -0.438732    0.416406   -0.088996
      3          1           0       -2.177625   -0.190279    1.010694
      4          1           0       -2.391732   -0.655990   -0.776880
      5          8           0        0.621120    0.704261   -0.030694
      6          8           0        1.362223   -0.580018    0.025166
 ---------------------------------------------------------------------
 Rotational constants (GHZ):          32.2162360           5.8032643           5.0823119
 Standard basis: 6-31++G(3df,3pd) (6D, 7F)
 There are   177 symmetry adapted cartesian basis functions of A   symmetry.
 There are   168 symmetry adapted basis functions of A   symmetry.
   168 basis functions,   222 primitive gaussians,   177 cartesian basis functions
    13 alpha electrons       12 beta electrons
       nuclear repulsion energy        60.1090888701 Hartrees.
 NAtoms=    6 NActive=    6 NUniq=    6 SFac= 1.00D+00 NAtFMM=   60 NAOKFM=F Big=F
 Integral buffers will be    131072 words long.
 Raffenetti 2 integral format.
 Two-electron integral symmetry is turned on.
 One-electron integrals computed using PRISM.
 NBasis=   168 RedAO= T EigKep=  3.97D-04  NBF=   168
 NBsUse=   168 1.00D-06 EigRej= -1.00D+00 NBFU=   168
 Initial guess from the checkpoint file:  "D:\Gaussian\CH3+O2\CH3_O2_new\TS_CH3_O2.chk"
 B after Tr=     0.000000    0.000000    0.000000
         Rot=    0.999909    0.013500   -0.000067   -0.000448 Ang=   1.55 deg.
 Initial guess <Sx>= 0.0000 <Sy>= 0.0000 <Sz>= 0.5000 <S**2>= 1.3783 S= 0.7760
 ExpMin= 3.60D-02 ExpMax= 5.48D+03 ExpMxC= 8.25D+02 IAcc=3 IRadAn=         5 AccDes= 0.00D+00
 Harris functional with IExCor=  402 and IRadAn=       5 diagonalized for initial guess.
 HarFok:  IExCor=  402 AccDes= 0.00D+00 IRadAn=         5 IDoV= 1 UseB2=F ITyADJ=14
 ICtDFT=  3500011 ScaDFX=  1.000000  1.000000  1.000000  1.000000
 FoFCou: FMM=F IPFlag=           0 FMFlag=      100000 FMFlg1=           0
         NFxFlg=           0 DoJE=T BraDBF=F KetDBF=T FulRan=T
         wScrn=  0.000000 ICntrl=       500 IOpCl=  0 I1Cent=   200000004 NGrid=           0
         NMat0=    1 NMatS0=      1 NMatT0=    0 NMatD0=    1 NMtDS0=    0 NMtDT0=    0
 Petite list used in FoFCou.
 Requested convergence on RMS density matrix=1.00D-08 within 128 cycles.
 Requested convergence on MAX density matrix=1.00D-06.
 Requested convergence on             energy=1.00D-06.
 No special actions if energy rises.
 SCF Done:  E(UB3LYP) =  -190.076703371     A.U. after   17 cycles
            NFock= 17  Conv=0.58D-08     -V/T= 2.0094
 <Sx>= 0.0000 <Sy>= 0.0000 <Sz>= 0.5000 <S**2>= 1.3807 S= 0.7770
 <L.S>= 0.000000000000E+00
 Annihilation of the first spin contaminant:
 S**2 before annihilation     1.3807,   after     0.7653
 Calling FoFJK, ICntrl=      2127 FMM=F ISym2X=0 I1Cent= 0 IOpClX= 1 NMat=1 NMatS=1 NMatT=0.
 ***** Axes restored to original set *****
 -------------------------------------------------------------------
 Center     Atomic                   Forces (Hartrees/Bohr)
 Number     Number              X              Y              Z
 -------------------------------------------------------------------
      1        6          -0.015239186   -0.002275793    0.003829090
      2        1           0.003809992    0.003063787    0.002186446
      3        1          -0.000050553    0.002673604    0.002458005
      4        1           0.009024187   -0.001451149   -0.008408346
      5        8           0.044844400    0.081263786    0.007339300
      6        8          -0.042388840   -0.083274235   -0.007404495
 -------------------------------------------------------------------
 Cartesian Forces:  Max     0.083274235 RMS     0.031537560

 GradGradGradGradGradGradGradGradGradGradGradGradGradGradGradGradGradGrad
 Berny optimization.
 FormGI is forming the generalized inverse of G from B-inverse, IUseBI=4.
 Internal  Forces:  Max     0.069050393 RMS     0.013411319
 Search for a saddle point.
 Step number   4 out of a maximum of   47
 All quantities printed in internal units (Hartrees-Bohrs-Radians)
 Update second derivatives using D2CorX and points    3    4
 ITU=  0  0  0  0
 LST/QST climbing along tangent vector
     Eigenvalues ---   -0.01249   0.00541   0.00712   0.01113   0.01684
     Eigenvalues ---    0.03350   0.06319   0.08005   0.11047   0.19228
     Eigenvalues ---    0.26116   0.285381000.000001000.000001000.00000
     Eigenvalues --- 1000.000001000.000001000.000001000.000001000.00000
     Eigenvalues --- 1000.000001000.000001000.000001000.000001000.00000
     Eigenvalues --- 1000.000001000.000001000.000001000.000001000.00000
     Eigenvalues --- 1000.000001000.000001000.000001000.000001000.00000
     Eigenvalues --- 1000.000001000.00000
 Eigenvectors required to have negative eigenvalues:
                          A6        R1        R8        A7        R5
   1                    0.33807   0.32880   0.31522  -0.30692  -0.29065
                          R7        A17       A10       A19       R6
   1                    0.26539   0.25946   0.24502   0.24491  -0.21351
 QST in optimization variable space.
 Eigenvectors 1 and   3 swapped, overlap=  1.0000
                        Tangent   TS vect  // Eig F  Eigenval
   1         R1         0.16597  -0.16597   0.02434   0.00712
   2         R2         0.00631  -0.00631   0.00274   0.00541
   3         R3         0.05174  -0.05174  -0.00728  -0.01249
   4         R4        -0.36694   0.36694  -0.00218   0.01113
   5         R5        -0.47751   0.47751   0.00144   0.01684
   6         R6        -0.30831   0.30831  -0.00619   0.03350
   7         R7        -0.33219   0.33219   0.00147   0.06319
   8         R8        -0.37770   0.37770   0.00131   0.08005
   9         R9         0.24326  -0.24326   0.00155   0.11047
  10         A1        -0.05167   0.05167  -0.03723   0.19228
  11         A2         0.02171  -0.02171  -0.00153   0.26116
  12         A3         0.05809  -0.05809  -0.00389   0.28538
  13         A4         0.00951  -0.00951   0.000001000.00000
  14         A5        -0.03682   0.03682   0.000001000.00000
  15         A6        -0.10517   0.10517   0.000001000.00000
  16         A7        -0.25502   0.25502   0.000001000.00000
  17         A8         0.09641  -0.09641   0.000001000.00000
  18         A9         0.02498  -0.02498   0.000001000.00000
  19         A10       -0.04533   0.04533   0.000001000.00000
  20         A11        0.06427  -0.06427   0.000001000.00000
  21         A12        0.11937  -0.11937   0.000001000.00000
  22         A13        0.05210  -0.05210   0.000001000.00000
  23         A14        0.03733  -0.03733   0.000001000.00000
  24         A15        0.04241  -0.04241   0.000001000.00000
  25         A16       -0.00716   0.00716   0.000001000.00000
  26         A17       -0.02459   0.02459   0.000001000.00000
  27         A18        0.04794  -0.04794   0.000001000.00000
  28         A19       -0.11470   0.11470   0.000001000.00000
  29         D1         0.09198  -0.09198   0.000001000.00000
  30         D2        -0.03613   0.03613   0.000001000.00000
  31         D3         0.13313  -0.13313   0.000001000.00000
  32         D4         0.07372  -0.07372   0.000001000.00000
  33         D5        -0.02073   0.02073   0.000001000.00000
  34         D6         0.06938  -0.06938   0.000001000.00000
  35         D7        -0.01552   0.01552   0.000001000.00000
  36         D8        -0.13472   0.13472   0.000001000.00000
  37         D9        -0.08280   0.08280   0.000001000.00000
 RFO step:  Lambda0=2.815666073D-02 Lambda=-3.56722604D-03.
 Linear search not attempted -- option 19 set.
 Maximum step size (   0.300) exceeded in Quadratic search.
    -- Step size scaled by   0.216
 Iteration  1 RMS(Cart)=  0.02912255 RMS(Int)=  0.00064202
 Iteration  2 RMS(Cart)=  0.00033092 RMS(Int)=  0.00030154
 Iteration  3 RMS(Cart)=  0.00000006 RMS(Int)=  0.00030154
 Variable       Old X    -DE/DX   Delta X   Delta X   Delta X     New X
                                 (Linear)    (Quad)   (Total)
    R1        2.76798   0.00581   0.00000  -0.02308  -0.02280   2.74519
    R2        2.07031  -0.00281   0.00000  -0.00096  -0.00109   2.06922
    R3        2.09774  -0.00946   0.00000   0.00601   0.00607   2.10381
    R4        6.06468   0.00096   0.00000  -0.13882  -0.13904   5.92564
    R5        2.07831   0.01037   0.00000  -0.06079  -0.06068   2.01762
    R6        3.89546  -0.02411   0.00000  -0.06849  -0.06807   3.82739
    R7        6.98271   0.00270   0.00000  -0.14317  -0.14298   6.83972
    R8        7.25547  -0.00258   0.00000  -0.17658  -0.17684   7.07864
    R9        2.80402  -0.06905   0.00000  -0.00793  -0.00815   2.79586
    A1        1.97268   0.00093   0.00000  -0.01768  -0.01814   1.95453
    A2        2.25668  -0.00166   0.00000   0.00000   0.00073   2.25741
    A3        2.00608  -0.00173   0.00000   0.01426   0.01384   2.01992
    A4        1.88210   0.00196   0.00000  -0.00552  -0.00533   1.87678
    A5        2.03805   0.00178   0.00000  -0.02968  -0.02956   2.00849
    A6        4.69142   0.01061   0.00000  -0.05224  -0.05249   4.63893
    A7        5.31962   0.02671   0.00000  -0.00683  -0.00715   5.31247
    A8        0.35561  -0.00357   0.00000   0.01805   0.01826   0.37387
    A9        0.89736   0.00010   0.00000   0.01303   0.01300   0.91036
   A10        3.01055  -0.00175   0.00000  -0.02228  -0.02246   2.98809
   A11        0.50913  -0.00346   0.00000   0.01381   0.01380   0.52293
   A12        0.54290  -0.00451   0.00000   0.03165   0.03211   0.57501
   A13        1.48588  -0.00410   0.00000   0.01657   0.01618   1.50206
   A14        5.85877  -0.00517   0.00000  -0.00863  -0.00840   5.85037
   A15        0.49733  -0.00174   0.00000   0.01471   0.01495   0.51229
   A16        1.05088   0.00021   0.00000   0.00878   0.00854   1.05942
   A17        2.41838  -0.00432   0.00000  -0.02588  -0.02607   2.39231
   A18        1.08464  -0.00083   0.00000   0.02662   0.02685   1.11150
   A19        3.44095  -0.00034   0.00000  -0.03934  -0.03920   3.40175
    D1        2.78771  -0.00865   0.00000  -0.01527  -0.01584   2.77186
    D2       -2.23062  -0.00294   0.00000   0.02305   0.02288  -2.20775
    D3       -1.84018  -0.00004   0.00000   0.02997   0.02998  -1.81020
    D4        2.15340  -0.00101   0.00000   0.04080   0.04048   2.19388
    D5        0.59217   0.00257   0.00000   0.00360   0.00360   0.59578
    D6       -0.43039  -0.00142   0.00000   0.01706   0.01674  -0.41366
    D7        0.41939  -0.00121   0.00000   0.01095   0.01084   0.43022
    D8       -1.18390  -0.00192   0.00000  -0.03915  -0.03904  -1.22294
    D9        0.77182  -0.00005   0.00000  -0.04766  -0.04702   0.72481
         Item               Value     Threshold  Converged?
 Maximum Force            0.069050     0.000450     NO 
 RMS     Force            0.013411     0.000300     NO 
 Maximum Displacement     0.110057     0.001800     NO 
 RMS     Displacement     0.029106     0.001200     NO 
 Predicted change in Energy= 4.497804D-05
 GradGradGradGradGradGradGradGradGradGradGradGradGradGradGradGradGradGrad

                          Input orientation:                          
 ---------------------------------------------------------------------
 Center     Atomic      Atomic             Coordinates (Angstroms)
 Number     Number       Type             X           Y           Z
 ---------------------------------------------------------------------
      1          6           0       -1.845973    0.038122    0.024107
      2          1           0       -0.462213   -0.404044    0.022007
      3          1           0       -2.213982    0.238086   -0.987611
      4          1           0       -2.444317    0.480286    0.852290
      5          8           0        0.582584   -0.592853   -0.090656
      6          8           0        1.210526    0.736787    0.072713
 ---------------------------------------------------------------------
                    Distance matrix (angstroms):
                    1          2          3          4          5
     1  C    0.000000
     2  H    1.452690   0.000000
     3  H    1.094984   2.121403   0.000000
     4  H    1.113289   2.323822   1.870014   0.000000
     5  O    2.511810   1.067681   3.052174   3.347074   0.000000
     6  O    3.135711   2.025370   3.619426   3.745853   1.479508
                    6
     6  O    0.000000
 Stoichiometry    CH3O2(2)
 Framework group  C1[X(CH3O2)]
 Deg. of freedom    12
 Full point group                 C1      NOp   1
 Largest Abelian subgroup         C1      NOp   1
 Largest concise Abelian subgroup C1      NOp   1
                         Standard orientation:                         
 ---------------------------------------------------------------------
 Center     Atomic      Atomic             Coordinates (Angstroms)
 Number     Number       Type             X           Y           Z
 ---------------------------------------------------------------------
      1          6           0       -1.769846   -0.093039   -0.019123
      2          1           0       -0.418550    0.432938   -0.106609
      3          1           0       -2.127598   -0.134167    1.014952
      4          1           0       -2.334326   -0.713709   -0.750932
      5          8           0        0.610952    0.707363   -0.037632
      6          8           0        1.326492   -0.585717    0.032297
 ---------------------------------------------------------------------
 Rotational constants (GHZ):          31.7399743           6.0788941           5.2776270
 Standard basis: 6-31++G(3df,3pd) (6D, 7F)
 There are   177 symmetry adapted cartesian basis functions of A   symmetry.
 There are   168 symmetry adapted basis functions of A   symmetry.
[...]
     6   8     0.00   0.01   0.00     0.00   0.00   0.00     0.00   0.00   0.00

 -------------------
 - Thermochemistry -
 -------------------
 Temperature   298.150 Kelvin.  Pressure   1.00000 Atm.
 Atom     1 has atomic number  6 and mass  12.00000
 Atom     2 has atomic number  1 and mass   1.00783
 Atom     3 has atomic number  1 and mass   1.00783
 Atom     4 has atomic number  1 and mass   1.00783
 Atom     5 has atomic number  8 and mass  15.99491
 Atom     6 has atomic number  8 and mass  15.99491
 Molecular mass:    47.01330 amu.
 Principal axes and moments of inertia in atomic units:
                           1         2         3
     Eigenvalues --    47.79738 342.95819 379.80025
           X            0.99984   0.01791   0.00269
           Y           -0.01776   0.99876  -0.04653
           Z           -0.00352   0.04648   0.99891
 This molecule is an asymmetric top.
 Rotational symmetry number  1.
 Rotational temperatures (Kelvin)      1.81211     0.25255     0.22805
 Rotational constants (GHZ):          37.75816     5.26228     4.75182
    1 imaginary frequencies ignored.
 Zero-point vibrational energy      84453.4 (Joules/Mol)
                                   20.18485 (Kcal/Mol)
 Warning -- explicit consideration of   4 degrees of freedom as
           vibrations may cause significant error
 Vibrational temperatures:     32.39   152.72   349.01   414.21  1158.14
          (Kelvin)           1665.73  1719.35  2234.03  3693.29  4356.38
                             4539.58
 
 Zero-point correction=                           0.032167 (Hartree/Particle)
 Thermal correction to Energy=                    0.037666
 Thermal correction to Enthalpy=                  0.038611
 Thermal correction to Gibbs Free Energy=         0.002736
 Sum of electronic and zero-point Energies=           -190.064374
 Sum of electronic and thermal Energies=              -190.058874
 Sum of electronic and thermal Enthalpies=            -190.057930
 Sum of electronic and thermal Free Energies=         -190.093804
 
                     E (Thermal)             CV                S
                      KCal/Mol        Cal/Mol-Kelvin    Cal/Mol-Kelvin
 Total                   23.636             14.511             75.505
 Electronic               0.000              0.000              1.377
 Translational            0.889              2.981             37.468
 Rotational               0.889              2.981             23.347
 Vibrational             21.859              8.550             13.312
 Vibration     1          0.593              1.985              6.399
 Vibration     2          0.605              1.944              3.338
 Vibration     3          0.659              1.775              1.784
 Vibration     4          0.685              1.696              1.486
                       Q            Log10(Q)             Ln(Q)
 Total Bot       0.551569D-01         -1.258400         -2.897574
 Total V=0       0.344505D+14         13.537196         31.170546
 Vib (Bot)       0.770617D-13        -13.113161        -30.194170
 Vib (Bot)    1  0.919966D+01          0.963772          2.219167
 Vib (Bot)    2  0.193113D+01          0.285811          0.658104
 Vib (Bot)    3  0.807369D+00         -0.092928         -0.213974
 Vib (Bot)    4  0.665026D+00         -0.177161         -0.407928
 Vib (V=0)       0.481321D+02          1.682435          3.873950
 Vib (V=0)    1  0.971324D+01          0.987364          2.273490
 Vib (V=0)    2  0.249481D+01          0.397037          0.914211
 Vib (V=0)    3  0.144966D+01          0.161265          0.371326
 Vib (V=0)    4  0.133202D+01          0.124511          0.286698
 Electronic      0.200000D+01          0.301030          0.693147
 Translational   0.126702D+08          7.102785         16.354767
 Rotational      0.282453D+05          4.450946         10.248682
 ***** Axes restored to original set *****
 -------------------------------------------------------------------
 Center     Atomic                   Forces (Hartrees/Bohr)
 Number     Number              X              Y              Z
 -------------------------------------------------------------------
      1        6          -0.000025877    0.000013214   -0.000003886
      2        1           0.000008334   -0.000003052   -0.000003081
      3        1           0.000011960   -0.000006760   -0.000004158
      4        1           0.000013272   -0.000006372    0.000008541
      5        8          -0.000012292   -0.000004490    0.000002987
      6        8           0.000004602    0.000007460   -0.000000403
 -------------------------------------------------------------------
 Cartesian Forces:  Max     0.000025877 RMS     0.000009720
 FormGI is forming the generalized inverse of G from B-inverse, IUseBI=4.

 GradGradGradGradGradGradGradGradGradGradGradGradGradGradGradGradGradGrad
 Berny optimization.
 Internal  Forces:  Max     0.000011224 RMS     0.000003662
 Search for a saddle point.
 Step number   1 out of a maximum of    2
 All quantities printed in internal units (Hartrees-Bohrs-Radians)
 Swapping is turned off.
 Second derivative matrix not updated -- analytic derivatives used.
 ITU=  0
     Eigenvalues ---   -0.00199   0.00003   0.00054   0.00164   0.00420
     Eigenvalues ---    0.00596   0.03287   0.04053   0.22242   0.25563
     Eigenvalues ---    0.27085   0.31980
 Eigenvectors required to have negative eigenvalues:
                          D1        R1        D2        D8        D3
   1                    0.49642   0.36009  -0.33709  -0.29709   0.26305
                          A13       A19       R4        A9        D6
   1                    0.19349  -0.18578  -0.17542   0.17287   0.16354
 Angle between quadratic step and forces=  85.08 degrees.
 Linear search not attempted -- option 19 set.
 Iteration  1 RMS(Cart)=  0.00632123 RMS(Int)=  0.00007168
 Iteration  2 RMS(Cart)=  0.00003564 RMS(Int)=  0.00004379
 Iteration  3 RMS(Cart)=  0.00000000 RMS(Int)=  0.00004379
 Variable       Old X    -DE/DX   Delta X   Delta X   Delta X     New X
                                 (Linear)    (Quad)   (Total)
    R1        3.33016   0.00000   0.00000  -0.00304  -0.00306   3.32710
    R2        2.06818   0.00000   0.00000  -0.00006  -0.00003   2.06815
    R3        2.06830   0.00000   0.00000  -0.00006   0.00001   2.06831
    R4        6.24832   0.00000   0.00000  -0.00021  -0.00018   6.24814
    R5        1.93352  -0.00001   0.00000   0.00063   0.00064   1.93417
    R6        3.54129   0.00000   0.00000   0.00104   0.00107   3.54236
    R7        7.20891   0.00000   0.00000   0.01508   0.01507   7.22398
    R8        7.60400   0.00000   0.00000  -0.01995  -0.01999   7.58401
    R9        2.48872   0.00001   0.00000  -0.00020  -0.00022   2.48850
    A1        2.12383   0.00000   0.00000   0.00154   0.00151   2.12534
    A2        2.16514  -0.00001   0.00000  -0.00315  -0.00315   2.16199
    A3        1.97272   0.00001   0.00000   0.00052   0.00054   1.97325
    A4        1.91205   0.00000   0.00000   0.00906   0.00906   1.92111
    A5        2.16646  -0.00001   0.00000  -0.01400  -0.01401   2.15245
    A6        4.80442   0.00000   0.00000   0.01033   0.01036   4.81478
    A7        5.60776   0.00000   0.00000  -0.01396  -0.01398   5.59378
    A8        0.41531   0.00000   0.00000  -0.00081  -0.00082   0.41449
    A9        0.96867   0.00000   0.00000  -0.00089  -0.00090   0.96777
   A10        3.15081   0.00000   0.00000   0.00034   0.00036   3.15117
   A11        0.60805   0.00000   0.00000  -0.00459  -0.00461   0.60344
   A12        0.49934   0.00000   0.00000   0.00474   0.00475   0.50409
   A13        1.74392   0.00000   0.00000  -0.00978  -0.00981   1.73411
   A14        6.05742   0.00000   0.00000  -0.00322  -0.00319   6.05422
   A15        0.46713   0.00000   0.00000   0.00076   0.00075   0.46788
   A16        1.16142   0.00000   0.00000  -0.00467  -0.00470   1.15672
   A17        2.74499   0.00000   0.00000  -0.00491  -0.00485   2.74014
   A18        1.05271   0.00000   0.00000   0.00466   0.00466   1.05737
   A19        3.63433   0.00000   0.00000   0.00046   0.00034   3.63467
    D1        2.92285   0.00000   0.00000  -0.00517  -0.00524   2.91761
    D2       -2.38532   0.00000   0.00000   0.00165   0.00159  -2.38373
    D3       -2.15496   0.00000   0.00000   0.01657   0.01656  -2.13840
    D4        1.72108   0.00000   0.00000   0.02085   0.02084   1.74192
    D5        0.40582   0.00000   0.00000   0.00525   0.00521   0.41103
    D6       -0.48353   0.00000   0.00000  -0.00013   0.00002  -0.48350
    D7        0.34169   0.00000   0.00000   0.00545   0.00546   0.34715
    D8       -0.85578   0.00000   0.00000  -0.01468  -0.01467  -0.87045
    D9        1.28112   0.00000   0.00000  -0.02121  -0.02114   1.25998
         Item               Value     Threshold  Converged?
 Maximum Force            0.000011     0.000450     YES
 RMS     Force            0.000004     0.000300     YES
 Maximum Displacement     0.021805     0.001800     NO 
 RMS     Displacement     0.006321     0.001200     NO 
 Predicted change in Energy=-5.148330D-08
                           ----------------------------
                           ! Non-Optimized Parameters !
                           ! (Angstroms and Degrees)  !
 --------------------------                            --------------------------
 ! Name  Definition              Value          Derivative Info.                !
 --------------------------------------------------------------------------------
 ! R1    R(1,2)                  1.7606         -DE/DX =    0.0                 !
 ! R2    R(1,3)                  1.0944         -DE/DX =    0.0                 !
 ! R3    R(1,4)                  1.0945         -DE/DX =    0.0                 !
 ! R4    R(1,6)                  3.3064         -DE/DX =    0.0                 !
 ! R5    R(2,5)                  1.0235         -DE/DX =    0.0                 !
 ! R6    R(2,6)                  1.8745         -DE/DX =    0.0                 !
 ! R7    R(3,6)                  3.8228         -DE/DX =    0.0                 !
 ! R8    R(4,6)                  4.0133         -DE/DX =    0.0                 !
 ! R9    R(5,6)                  1.3169         -DE/DX =    0.0                 !
 ! A1    A(2,1,3)              121.773          -DE/DX =    0.0                 !
 ! A2    A(2,1,4)              123.8727         -DE/DX =    0.0                 !
 ! A3    A(3,1,4)              113.0591         -DE/DX =    0.0                 !
 ! A4    A(3,1,6)              110.0713         -DE/DX =    0.0                 !
 ! A5    A(4,1,6)              123.3263         -DE/DX =    0.0                 !
 ! A6    L(5,2,6,3,-1)         275.8665         -DE/DX =    0.0                 !
 ! A7    L(5,2,6,3,-2)         320.5001         -DE/DX =    0.0                 !
 ! A8    A(1,6,2)               23.7484         -DE/DX =    0.0                 !
 ! A9    L(1,6,5,2,-1)          55.4492         -DE/DX =    0.0                 !
 ! A10   L(1,6,5,2,-2)         180.5485         -DE/DX =    0.0                 !
 ! A11   A(2,6,3)               34.5743         -DE/DX =    0.0                 !
 ! A12   A(2,6,4)               28.8822         -DE/DX =    0.0                 !
 ! A13   L(2,6,5,3,-1)          99.357          -DE/DX =    0.0                 !
 ! A14   L(2,6,5,3,-2)         346.8814         -DE/DX =    0.0                 !
 ! A15   A(3,6,4)               26.8077         -DE/DX =    0.0                 !
 ! A16   L(3,6,5,2,-1)          66.2752         -DE/DX =    0.0                 !
 ! A17   L(3,6,5,2,-2)         156.9983         -DE/DX =    0.0                 !
 ! A18   L(4,6,5,2,-1)          60.5831         -DE/DX =    0.0                 !
 ! A19   L(4,6,5,2,-2)         208.2512         -DE/DX =    0.0                 !
 ! D1    D(2,1,4,3)            167.167          -DE/DX =    0.0                 !
 ! D2    D(3,1,4,6)           -136.5776         -DE/DX =    0.0                 !
 ! D3    D(3,1,6,2)           -122.521          -DE/DX =    0.0                 !
 ! D4    D(4,1,6,2)             99.8048         -DE/DX =    0.0                 !
 ! D5    D(3,2,6,1)             23.5502         -DE/DX =    0.0                 !
 ! D6    D(4,2,6,1)            -27.7027         -DE/DX =    0.0                 !
 ! D7    D(4,3,6,1)             19.8901         -DE/DX =    0.0                 !
 ! D8    D(5,3,6,1)            -49.8733         -DE/DX =    0.0                 !
 ! D9    D(5,4,6,1)             72.1916         -DE/DX =    0.0                 !
 --------------------------------------------------------------------------------
 GradGradGradGradGradGradGradGradGradGradGradGradGradGradGradGradGradGrad


 ----------------------------------------------------------------------

 Electric dipole moment (input orientation):
 (Debye = 10**-18 statcoulomb cm , SI units = C m)
                  (au)            (Debye)         (10**-30 SI)
   Tot        0.169576D+01      0.431019D+01      0.143772D+02
   x         -0.169571D+01     -0.431007D+01     -0.143768D+02
   y          0.110401D-01      0.280611D-01      0.936019D-01
   z         -0.613169D-02     -0.155852D-01     -0.519866D-01

 Dipole polarizability, Alpha (input orientation).
 (esu units = cm**3 , SI units = C**2 m**2 J**-1)
 Alpha(0;0):
               (au)            (10**-24 esu)      (10**-40 SI)
   iso        0.365006D+02      0.540883D+01      0.601814D+01
   aniso      0.336009D+02      0.497914D+01      0.554005D+01
   xx         0.586900D+02      0.869696D+01      0.967667D+01
   yx         0.163376D+01      0.242098D+00      0.269370D+00
   yy         0.268162D+02      0.397375D+01      0.442140D+01
   zx        -0.245829D+00     -0.364282D-01     -0.405318D-01
   zy        -0.153203D+01     -0.227024D+00     -0.252598D+00
   zz         0.239957D+02      0.355579D+01      0.395635D+01

 ----------------------------------------------------------------------

 Dipole orientation:
     6         -0.05415754          0.14682544          3.70194189
     1          0.17119983         -0.72304239          0.49530945
     1         -1.85761198          0.69057056          4.55590356
     1          1.57355987          0.58691925          4.89973483
     8          0.26403952         -1.01242092         -1.41418231
     8         -0.25844423          1.18657892         -2.45587620

 Electric dipole moment (dipole orientation):
 (Debye = 10**-18 statcoulomb cm , SI units = C m)
                  (au)            (Debye)         (10**-30 SI)
   Tot        0.169576D+01      0.431019D+01      0.143772D+02
   x          0.000000D+00      0.000000D+00      0.000000D+00
   y          0.000000D+00      0.000000D+00      0.000000D+00
   z          0.169576D+01      0.431019D+01      0.143772D+02

 Dipole polarizability, Alpha (dipole orientation).
 (esu units = cm**3 , SI units = C**2 m**2 J**-1)
 Alpha(0;0):
               (au)            (10**-24 esu)      (10**-40 SI)
   iso        0.365006D+02      0.540883D+01      0.601814D+01
   aniso      0.336009D+02      0.497914D+01      0.554005D+01
   xx         0.239779D+02      0.355316D+01      0.395342D+01
   yx        -0.152162D+01     -0.225481D+00     -0.250882D+00
   yy         0.268588D+02      0.398006D+01      0.442841D+01
   zx         0.349254D+00      0.517541D-01      0.575842D-01
   zy        -0.183788D+01     -0.272346D+00     -0.303026D+00
   zz         0.586652D+02      0.869328D+01      0.967258D+01

 ----------------------------------------------------------------------
 1|1|UNPC-MFR-PC|Freq|UB3LYP|6-31++G(3df,3pd)|C1H3O2(2)|COMBUSTION-LAB_
 PC3|07-Sep-2025|0||#N Geom=AllCheck Guess=TCheck SCRF=Check GenChk UB3
 LYP/6-31++G(3df,3pd) Freq||Title Card Required||0,2|C,-1.9583188919,0.
 0902599319,-0.0362474648|H,-0.2649229058,-0.3803029158,0.0921357888|H,
 -2.404913153,0.3746916799,-0.9940752963|H,-2.593702299,0.3328921993,0.
 8212714927|O,0.7443324926,-0.5396864506,0.1459137517|O,1.3041490672,0.
 6185293153,-0.1361477721||Version=EM64W-G16RevB.01|State=2-A|HF=-190.0
 965402|S2=1.339625|S2-1=0.|S2A=0.760717|RMSD=2.264e-010|RMSF=9.720e-00
 6|ZeroPoint=0.0321666|Thermal=0.0376663|Dipole=-1.6957104,0.0110401,-0
 .0061317|DipoleDeriv=-0.3741424,-0.083171,-0.0282527,-0.302143,-0.2380
 737,-0.0168502,-0.0420924,-0.0138155,0.1022785,0.2583397,-0.0552734,0.
 0037497,-0.034945,0.1427415,0.0238256,0.0304726,0.0248311,0.2466291,0.
 263485,0.0400638,-0.0982943,0.0920731,0.1756848,0.0626583,-0.0946359,0
 .0515475,-0.0098155,0.2118229,0.0454308,0.1280243,0.0921398,0.1758852,
 -0.0475651,0.1455215,-0.0360531,0.0271242,-0.1435267,-0.1879953,0.0496
 378,0.6522465,-0.3239229,0.052684,-0.1569547,0.0361712,-0.1993631,-0.2
 159786,0.2409451,-0.0548649,-0.4993715,0.067685,-0.0747527,0.1176888,-
 0.0626813,-0.1668532|Polar=58.6899689,1.6337565,26.8162227,-0.2458294,
 -1.5320332,23.9956737|Quadrupole=1.5783076,-1.4102783,-0.1680293,-0.57
 19761,0.0913942,0.1966642|PG=C01 [X(C1H3O2)]|NImag=1||0.21354293,-0.09
 060975,0.05060810,-0.02958864,-0.01854876,0.47675885,0.01646972,-0.021
 19901,0.00133754,0.22677331,-0.00736835,-0.01344432,-0.00054093,-0.021
 08635,0.08317974,0.00199481,-0.00032099,-0.01218099,0.00947026,-0.0163
 9609,0.02677100,-0.07051993,0.04265543,-0.11969012,0.00752219,0.000565
 72,-0.00351070,0.06578067,0.03875535,-0.02674250,0.07615017,0.00288166
 ,0.00320061,0.00152338,-0.03919299,0.02477402,-0.09380720,0.06346051,-
 0.25785801,0.00110274,0.00014734,0.00035074,0.10583821,-0.07065328,0.2
 7240894,-0.12186863,0.04752024,0.15051133,0.00750582,0.00023070,0.0037
 5005,0.00254856,-0.00055715,-0.01250673,0.11750349,0.04726582,-0.02169
 424,-0.05776078,0.00269042,0.00356234,-0.00134516,-0.00254064,0.001817
 98,0.00720479,-0.04588008,0.01936717,0.12478025,-0.04417230,-0.2119736
 6,0.00060592,0.00004518,0.00087491,0.01614757,-0.00682704,-0.01476337,
 -0.14086409,0.05119941,0.22608407,-0.04414805,0.01340100,-0.00263830,-
 0.23844706,0.08502149,-0.02534575,-0.00406015,0.00067480,-0.00059763,-
 0.00458027,0.00085452,-0.00034482,0.40808479,0.00955996,0.01815319,0.0
 0093527,0.07874221,-0.06910896,0.01382692,-0.00441887,-0.00413266,-0.0
 0035650,-0.00449354,-0.00376433,-0.00070572,0.04626339,0.38247521,-0.0
 0267483,-0.00173608,0.00524979,-0.02243585,0.01536569,-0.01569140,0.00
 170922,0.00004608,-0.00010696,-0.00004641,0.00077579,-0.00013026,-0.00
 611988,-0.09314854,0.03040160,0.00652397,0.00823209,0.00006819,-0.0198
 2398,-0.05736321,0.01364134,-0.00127134,-0.00256167,-0.00002938,-0.001
 10896,-0.00239004,-0.00032483,-0.11684925,-0.12565315,0.02956775,0.132
 52957,0.00239697,-0.00688022,-0.00023498,-0.04202892,-0.00738941,0.002
 71194,0.00293135,0.00108254,0.00019713,0.00317983,0.00071108,0.0004604
 7,-0.14621521,-0.32362246,0.07869706,0.17973599,0.33609847,-0.00070438
 ,0.00131762,0.00000401,0.00991939,0.00137881,-0.00012426,-0.00049417,-
 0.00023931,-0.00003135,-0.00084415,-0.00007406,-0.00009169,0.03504638,
 0.07944856,-0.01972278,-0.04292306,-0.08183163,0.01996608||0.00002588,
 -0.00001321,0.00000389,-0.00000833,0.00000305,0.00000308,-0.00001196,0
 .00000676,0.00000416,-0.00001327,0.00000637,-0.00000854,0.00001229,0.0
 0000449,-0.00000299,-0.00000460,-0.00000746,0.00000040|||@


 FOR THE NATURE OF THE CHEMICAL BOND
 IS THE PROBLEM AT THE HEART OF ALL CHEMISTRY.

                     -- BRYCE CRAWFORD, JR., 1953
 Job cpu time:       0 days  0 hours  9 minutes 36.0 seconds.
 Elapsed time:       0 days  0 hours  9 minutes 35.0 seconds.
 File lengths (MBytes):  RWF=     37 Int=      0 D2E=      0 Chk=      4 Scr=      1
 Normal termination of Gaussian 16 at Sun Sep 07 20:06:50 2025.
